24
101355_b3lyp_prop_1.log	Energy: -408476.5431252
O          0.38842        1.94590       -0.15905
O         -2.38895        1.50429       -0.28147
O          0.81192       -2.72180        0.10245
C         -2.20838       -0.82998        0.01380
C         -1.64511        0.55028       -0.11207
C         -0.16123        0.72717       -0.05321
C         -1.37220       -1.87603        0.07505
C          0.67532       -0.35614       -0.01354
C          0.10184       -1.73149        0.05201
C         -3.70259       -0.94457        0.03042
C         -0.24892        3.13958        0.33949
H         -4.13302       -0.50457       -0.87296
H         -4.12457       -0.39026        0.87354
H         -4.01047       -1.98823        0.10202
H          0.56669        3.85035        0.46607
H         -0.72987        2.95490        1.30143
H         -0.98176        3.51748       -0.36981
H         -1.73057       -2.89759        0.14597
C          2.08262       -0.22158       -0.02606
C          3.28658       -0.13581       -0.03878
C          4.73710       -0.04109       -0.05771
H          5.11653       -0.09694       -1.08285
H          5.07671        0.90469        0.37415
H          5.18907       -0.85904        0.51062
