26
102182508_b3lyp_prop_1.log	Energy: -432992.4269698
C          2.90081       -1.09655        0.03263
C          1.95943       -0.15583       -0.23898
C          0.77203       -0.84893       -0.91284
C          1.17243       -2.30660       -0.86745
C          2.41326       -2.41261       -0.35428
C         -0.59350       -0.50127       -0.37212
C         -1.53022        0.09617       -1.13203
C         -2.87250        0.45890       -0.62515
O         -3.69769        0.99889       -1.34583
C         -3.17570        0.14338        0.79165
C         -2.26191       -0.44959        1.56832
C         -0.91422       -0.81903        1.05985
O         -0.10991       -1.36284        1.79385
H          0.78632       -0.53631       -1.96701
H          0.54579       -3.10513       -1.23973
H          2.97558       -3.32996       -0.23918
H         -1.34556        0.35163       -2.17048
H         -4.16299        0.41808        1.14623
H         -2.44640       -0.69664        2.60809
H          3.86976       -0.89653        0.46979
C          2.01937        1.23701       -0.02678
C          2.03561        2.43411        0.14503
C          2.07309        3.87363        0.35856
H          2.11132        4.11333        1.42583
H          2.95317        4.31982       -0.11481
H          1.18595        4.35647       -0.06128
