26
102182508_b3lyp_prop_3.log	Energy: -432992.4269686
C         -2.41331       -2.41255       -0.35426
C         -1.17249       -2.30657       -0.86745
C         -0.77206       -0.84892       -0.91284
C         -1.95945       -0.15578       -0.23897
C         -2.90083       -1.09649        0.03267
C          0.59348       -0.50128       -0.37212
C          1.53021        0.09613       -1.13204
C          2.87250        0.45883       -0.62515
O          3.69774        0.99872       -1.34585
C          3.17565        0.14342        0.79169
C          2.26184       -0.44953        1.56836
C          0.91420       -0.81905        1.05985
O          0.10991       -1.36296        1.79381
H         -3.86976       -0.89645        0.46985
H          1.34557        0.35157       -2.17048
H          4.16292        0.41816        1.14628
H          2.44630       -0.69651        2.60815
H         -2.97564       -3.32990       -0.23917
H         -0.54588       -3.10512       -1.23974
H         -0.78634       -0.53628       -1.96701
C         -2.01936        1.23707       -0.02680
C         -2.03553        2.43416        0.14502
C         -2.07293        3.87369        0.35853
H         -2.11067        4.11341        1.42581
H         -1.18601        4.35654       -0.06174
H         -2.95325        4.31985       -0.11442
