19
10419488_b3lyp_0.log	Energy: -417056.8669576
C          2.22045        2.02143        0.00002
C          1.12591        1.00392        0.00018
C          1.33237       -0.34022        0.00005
C          0.22021       -1.36729       -0.00007
O          0.44129       -2.55936        0.00029
C         -1.10781       -0.76399        0.00002
C         -1.37257        0.57885        0.00025
C         -0.28318        1.56178        0.00078
O         -0.47056        2.76363       -0.00038
C         -2.79439        0.71193       -0.00020
C         -3.27164       -0.56379       -0.00015
O         -2.25459       -1.47377       -0.00010
H          2.12467        2.67255        0.87364
H          2.12420        2.67283       -0.87335
H          3.20600        1.55959       -0.00032
H         -3.36926        1.62344       -0.00030
H         -4.26483       -0.98040       -0.00027
C          2.65482       -0.88337       -0.00013
N          3.72930       -1.30679       -0.00034
