16
10986586_b3lyp_2.log	Energy: -595055.5673273
C          2.80831        0.83293        0.00006
C          2.86233       -0.50708        0.00007
C          1.64218       -1.36126       -0.00003
O          1.70578       -2.57777        0.00003
C          0.36877       -0.61954       -0.00005
C          0.28887        0.75953       -0.00007
C          1.52212        1.58384       -0.00016
O          1.49505        2.80098        0.00005
C         -1.04294        1.23721       -0.00002
C         -1.95401        0.20460        0.00001
S         -1.18505       -1.36820       -0.00003
H          3.70364        1.44474        0.00016
H          3.80258       -1.04746        0.00017
H         -1.31403        2.28346       -0.00002
C         -3.36451        0.31230        0.00004
N         -4.51781        0.39564        0.00007
