16
10986586_b3lyp_0.log	Energy: -595054.0298174
C          1.43617        1.41452       -0.00000
C          1.78865        0.11282       -0.00002
C          0.76012       -0.99852       -0.00006
O          1.09102       -2.16682       -0.00002
C         -0.62717       -0.53372       -0.00004
C         -1.00628        0.79595       -0.00003
C          0.01441        1.86213       -0.00012
O         -0.25878        3.04939        0.00004
C         -2.41549        0.97057        0.00002
C         -3.07230       -0.23003        0.00005
S         -1.99838       -1.58750        0.00001
H          2.17785        2.20491        0.00006
H         -2.90087        1.93627        0.00004
H         -4.13858       -0.40104        0.00009
C          3.16190       -0.28191        0.00003
N          4.27681       -0.58165        0.00006
