24
11029986_b3lyp_prop_1.log	Energy: -385169.4075617
C          4.57347       -0.71940        1.18230
C          3.74494        0.14087        0.59687
C          2.98604       -0.14626       -0.67898
C          1.48987       -0.11141       -0.48581
C          0.71961       -1.21224       -0.47713
C         -0.74374       -1.17890       -0.27357
O         -1.40145       -2.20240       -0.27446
C         -1.38916        0.17205       -0.06473
C         -0.61214        1.27998       -0.08142
C          0.84329        1.22757       -0.29717
O          1.50808        2.25412       -0.32904
H          4.75632       -1.70867        0.77311
H          5.10510       -0.46135        2.09122
H          3.58620        1.12515        1.02784
H          3.25298        0.61213       -1.42357
H          3.27559       -1.12419       -1.07066
H         -1.03101        2.26937        0.05963
H          1.13607       -2.20450       -0.61823
C         -2.78939        0.20736        0.13790
C         -3.98450        0.21116        0.30854
C         -5.42309        0.20576        0.51356
H         -5.92855        0.79797       -0.25508
H         -5.81752       -0.81305        0.47431
H         -5.67936        0.63415        1.48713
