20
11029986_b3lyp_2.log	Energy: -370584.4318316
C          3.42841       -0.52366        0.95684
C          2.65871        0.41607        0.41547
C          1.74691        0.17938       -0.77221
C          0.29729        0.31928       -0.38981
C         -0.53983       -0.72760       -0.17950
C         -1.97220       -0.53927        0.22567
O         -2.71043       -1.48756        0.40381
C         -2.44820        0.85257        0.39941
C         -1.63931        1.89806        0.19527
C         -0.22913        1.71622       -0.21568
O          0.49371        2.67702       -0.41512
H          3.44497       -1.54110        0.57921
H          4.07493       -0.30215        1.79845
H          1.96833        0.92373       -1.54346
H         -3.48510        0.95881        0.69749
H         -1.96585        2.92516        0.31349
H          2.66201        1.42623        0.81457
H          1.92580       -0.81397       -1.18579
C         -0.10007       -2.07957       -0.33120
N          0.27046       -3.16588       -0.45844
