22
11040862_b3lyp_prop_1.log	Energy: -407722.5806024
C          3.96990       -0.69222        0.56349
C          3.08186        0.37327       -0.02544
O          3.52675        1.41818       -0.45199
C          1.57472        0.16592       -0.04198
C          0.78526        1.25217        0.02272
C         -0.69555        1.18477        0.05029
O         -1.36100        2.19862        0.12475
C         -1.32818       -0.18192       -0.01702
C         -0.52583       -1.26895       -0.10338
C          0.94597       -1.18974       -0.13213
O          1.61167       -2.20857       -0.25062
H          3.98536       -1.56529       -0.09239
H          3.58299       -1.03860        1.52586
H          4.97384       -0.28603        0.68019
H         -0.93515       -2.27020       -0.16765
H          1.21409        2.24754        0.06434
C         -2.74073       -0.25578        0.00678
C         -3.94728       -0.28985        0.02831
C         -5.39951       -0.32289        0.05378
H         -5.76061       -0.92242        0.89459
H         -5.80950        0.68576        0.15113
H         -5.79406       -0.76524       -0.86579
