16
11122_b3lyp_1.log	Energy: -322007.9776323
C          3.11610        0.67646        0.00006
C          1.64103        0.42390        0.00001
C          0.70975        1.39530       -0.00002
C         -0.74255        1.13275       -0.00011
O         -1.55917        2.03210       -0.00002
C         -1.17551       -0.31000        0.00000
C         -0.25832       -1.29504        0.00003
C          1.19760       -1.00515        0.00011
O          2.00105       -1.92142       -0.00014
H          3.58311        0.21640        0.87528
H          3.33176        1.74506       -0.00070
H          3.58346        0.21499       -0.87421
H         -0.53319       -2.34345        0.00003
H          0.97967        2.44613       -0.00004
C         -2.57709       -0.58457        0.00003
N         -3.70655       -0.82378        0.00004
