24
11958_b3lyp_prop_0.log	Energy: -408480.0968720
C          1.42181        2.53133       -0.00000
C          0.45678        1.38847        0.00003
C          0.82846        0.07971        0.00002
C         -0.19623       -1.01960        0.00018
O          0.11618       -2.18906        0.00049
C         -1.64912       -0.61282       -0.00002
C         -2.00333        0.68928       -0.00002
C         -0.99523        1.75200        0.00004
O         -1.33041        2.93055        0.00007
O         -2.46784       -1.66716       -0.00015
C         -3.87606       -1.42820       -0.00021
H          2.45190        2.17969       -0.00015
H          1.25412        3.16782        0.87361
H          1.25390        3.16797       -0.87346
H         -3.03183        1.02478       -0.00008
H         -4.17571       -0.87472        0.89466
H         -4.17563       -0.87463       -0.89505
H         -4.34037       -2.41162       -0.00028
C          2.18270       -0.34867       -0.00005
C          3.32064       -0.75089       -0.00010
C          4.68634       -1.25054       -0.00018
H          5.23144       -0.90378        0.88286
H          4.69798       -2.34387        0.00161
H          5.23026       -0.90668       -0.88507
