24
11958_b3lyp_prop_1.log	Energy: -408475.8175034
C          2.92469       -2.29510        0.00546
C          2.05945       -1.07318        0.00152
C          2.53504        0.17998       -0.00551
C          1.66042        1.36258       -0.00792
O          2.12244        2.48739       -0.01347
C          0.16274        1.14286       -0.00274
C         -0.35730       -0.12465        0.00076
C          0.57512       -1.29854        0.00502
O          0.14630       -2.43885        0.01057
O         -0.46121        2.31806       -0.00390
C         -1.88723        2.46464        0.02445
H          3.98130       -2.02475        0.00162
H          2.70966       -2.92041       -0.86519
H          2.71388       -2.91170        0.88335
H         -2.34284        2.02392       -0.86205
H         -2.30787        2.01181        0.92218
H         -2.04993        3.54089        0.03489
H          3.59790        0.39724       -0.00916
C         -1.73625       -0.47178       -0.00238
C         -2.86647       -0.89485       -0.00708
C         -4.23132       -1.39819       -0.01290
H         -4.78453       -1.05860        0.86830
H         -4.77575       -1.06187       -0.90079
H         -4.23546       -2.49184       -0.01083
