26
12344381_b3lyp_4.log	Energy: -548109.9976143
C          4.42405       -0.99613       -0.00015
C          4.46809        0.40125       -0.00014
C          3.29009        1.13838       -0.00004
C          2.05421        0.48365        0.00002
C          2.01051       -0.92160        0.00001
C          3.20112       -1.65552       -0.00008
C          0.71455       -1.64463        0.00009
O          0.65185       -2.86072        0.00017
C         -0.54240       -0.82121        0.00006
C         -1.75864       -1.50201        0.00003
C         -2.95713       -0.78691       -0.00003
C         -2.93521        0.61239       -0.00006
C         -1.71863        1.30150       -0.00002
C         -0.50281        0.58269        0.00005
C          0.81179        1.30429        0.00013
O          0.85169        2.51963        0.00027
C         -1.80620        2.73369       -0.00006
N         -2.04575        3.86345       -0.00012
H          5.34536       -1.56700       -0.00022
H         -3.86298        1.16964       -0.00011
H          5.42371        0.91264       -0.00019
H          3.30355        2.22109       -0.00002
H          3.14381       -2.73684       -0.00008
H         -1.75120       -2.58442        0.00005
C         -4.21132       -1.47827       -0.00006
N         -5.22321       -2.03427       -0.00009
