27
12506460_b3lyp_6.log	Energy: -538005.5469689
C          3.00223        3.30668       -0.00033
C          2.71144        2.13789        0.00027
C          2.54207        0.72243        0.00019
C          1.28734        0.06165       -0.00009
C          1.25582       -1.34726       -0.00006
C          2.43626       -2.09182        0.00014
C          3.66429       -1.44276        0.00038
C          3.71487       -0.05512        0.00042
C         -0.03279       -2.09719       -0.00020
O         -0.05526       -3.31636       -0.00050
C         -1.30130       -1.31171       -0.00010
C         -2.51147       -2.01131        0.00006
C         -3.71445       -1.31995        0.00025
C         -3.71393        0.07147        0.00029
C         -2.50890        0.78823        0.00009
C         -1.28068        0.09116       -0.00012
C          0.01629        0.84357       -0.00049
O          0.01200        2.05876       -0.00063
H          3.19393        4.35207       -0.00034
H          2.36506       -3.17194        0.00012
H          4.58457       -2.01518        0.00056
H          4.66882        0.45738        0.00063
H         -2.47929       -3.09354        0.00004
H         -4.65523       -1.85739        0.00040
H         -4.64706        0.62107        0.00046
C         -2.62755        2.21832        0.00015
N         -2.90312        3.34037        0.00029
