22
12587549_b3lyp_1.log	Energy: -441734.7279144
C         -1.65621       -1.82493        0.37111
C         -0.14832       -2.07996        0.18244
C          0.66101       -0.81795        0.05427
C          0.13006        0.39817       -0.18395
C         -1.37075        0.62843       -0.32258
C         -2.11878       -0.71530       -0.53981
O         -2.95991       -0.82220       -1.39320
C          0.99321        1.60267       -0.37345
O          0.50610        2.68168       -0.66227
C          2.45764        1.43780       -0.22112
C          2.99573        0.23858        0.02572
C          2.15021       -0.96945        0.16905
O          2.64859       -2.06161        0.37904
H         -1.84620       -1.51236        1.40434
H         -2.23866       -2.72370        0.16999
H          0.01822       -2.67944       -0.72073
H         -1.56780        1.27013       -1.18506
H          3.04969        2.33841       -0.33827
H          4.06339        0.08188        0.13065
H          0.24849       -2.68245        1.00232
C         -1.90849        1.29312        0.86757
N         -2.34246        1.76822        1.82467
