31
12635763_b3lyp_prop_6.log	Energy: -552587.1134847
C         -1.59239        4.08761        0.05144
C         -1.81255        2.90336        0.02736
C         -2.26579        1.55002        0.02023
C         -1.41970        0.41336       -0.02957
C         -2.00021       -0.86807       -0.01534
C         -3.38583       -1.03195        0.03689
C         -4.21261        0.08214        0.08601
C         -3.65774        1.35562        0.08143
C         -1.15737       -2.09741       -0.04954
O         -1.66759       -3.20583       -0.08536
C          0.32335       -1.93272       -0.01806
C          1.10096       -3.09036        0.03248
C          2.48562       -2.99097        0.08002
C          3.09033       -1.74148        0.07512
C          2.33391       -0.55493        0.01496
C          0.91849       -0.65570       -0.03284
C          0.06781        0.57145       -0.11823
O          0.56368        1.67307       -0.26234
H         -1.33582        5.11850        0.06453
H         -3.78536       -2.03801        0.03984
H         -5.28910       -0.03643        0.12953
H         -4.29555        2.22984        0.12462
H          0.59885       -4.04924        0.03604
H          3.09662       -3.88535        0.12277
H          4.16932       -1.65694        0.11665
C          3.05639        0.67202        0.01879
C          3.77804        1.63932        0.03399
C          4.56973        2.85868        0.04109
H          5.10413        2.97527        0.98898
H          5.31508        2.84907       -0.76002
H          3.93063        3.73536       -0.09872
