25
12913941_b3lyp_prop_2.log	Energy: -432389.6200913
C         -0.86910        2.14204        0.10859
C          0.59363        2.44448       -0.20547
O          1.04613        1.66477       -1.31388
C          1.08064        0.26917       -1.02468
C         -0.25332       -0.20711       -0.46461
C         -1.13857        0.66360        0.06004
C         -2.44586        0.17863        0.59503
O         -3.25866        0.95352        1.07311
C         -2.72870       -1.27684        0.53711
C         -1.84948       -2.13268        0.00494
C         -0.56200       -1.65946       -0.56360
O          0.19731       -2.43768       -1.11794
H         -1.53079        2.63823       -0.61105
H          1.22772        2.24602        0.66773
H          1.24398       -0.22166       -1.98763
H         -3.68271       -1.59012        0.94657
H         -2.03016       -3.20000       -0.05952
H         -1.14701        2.53570        1.09086
H          0.72971        3.48546       -0.49823
C          2.18310       -0.09030       -0.11989
C          3.09222       -0.38374        0.61315
C          4.19970       -0.74763        1.48677
H          4.59355       -1.73282        1.22139
H          5.01742       -0.02634        1.40117
H          3.88651       -0.78037        2.53412
