21
12913941_b3lyp_2.log	Energy: -417810.9162468
C         -1.48577       -1.78289       -0.03843
C         -2.87276       -1.27348        0.34741
O         -3.19683       -0.09313       -0.38226
C         -2.36513        1.00003       -0.04757
C         -0.90209        0.63566       -0.01760
C         -0.49514       -0.65114       -0.02735
C          0.95164       -0.99814       -0.02468
O          1.33335       -2.15097       -0.03602
C          1.94099        0.13728       -0.00191
C          1.52120        1.41499        0.03161
C          0.07530        1.74985        0.03477
O         -0.28300        2.91587        0.07673
H         -1.15192       -2.57102        0.64262
H         -1.50832       -2.23288       -1.03736
H         -2.91880       -1.06984        1.42716
H         -2.54095        1.77537       -0.79537
H          2.20772        2.25328        0.05710
H         -3.64510       -2.00305        0.10444
H         -2.65113        1.42655        0.92722
C          3.32961       -0.19851       -0.00757
N          4.45618       -0.45065       -0.01221
