22
129814774_b3lyp_prop_0.log	Energy: -452369.0304420
C          1.71006       -0.18671       -0.09597
C          1.01324       -1.30198       -0.42402
C         -0.44900       -1.31757       -0.53392
O         -1.06104       -2.31265       -0.89254
C         -1.18643       -0.05430       -0.21211
C         -0.52131        1.06367        0.09800
C          0.96287        1.09736        0.17872
O          1.53873        2.12638        0.46245
C         -2.71202       -0.16222       -0.27605
C         -3.24260       -0.70303        0.98732
N         -3.63631       -1.13252        1.98050
C         -3.35735        1.11236       -0.60975
N         -3.84628        2.11727       -0.88701
H          1.51135       -2.23975       -0.63816
H         -1.01736        2.00517        0.31001
H         -2.95247       -0.89300       -1.05853
C          3.11904       -0.15181        0.00165
C          4.32168       -0.09263        0.09257
C          5.76745       -0.01629        0.20490
H          6.24634       -0.32925       -0.72750
H          6.08653        1.00463        0.42973
H          6.12848       -0.67209        1.00270
