17
130029656_b3lyp_1.log	Energy: -379899.6933936
C          1.17485        2.40661        0.00008
C          0.58774        1.03364        0.00000
C          1.30965       -0.11550       -0.00003
C          0.66266       -1.46513       -0.00016
O          1.31577       -2.48847        0.00001
C         -0.81724       -1.51402       -0.00006
C         -1.55912       -0.39175       -0.00002
C         -0.91120        0.96219       -0.00011
O         -1.58075        1.97261       -0.00015
C          2.73904       -0.10326       -0.00008
N          3.89333       -0.07856        0.00019
H          2.26297        2.38042        0.00011
H          0.82391        2.96287        0.87392
H          0.82396        2.96295       -0.87373
H         -1.25843       -2.50374       -0.00002
C         -2.98717       -0.43334        0.00009
N         -4.14016       -0.48604        0.00019
