18
130029688_b3lyp_0.log	Energy: -437787.6763840
C         -2.32098        2.10688       -0.00022
C         -1.26850        1.04863        0.00013
C         -1.51357       -0.28567        0.00015
C         -0.42635       -1.30921        0.00052
O         -0.66100       -2.49474        0.00021
C          0.99111       -0.80870        0.00025
C          1.25884        0.52139        0.00023
C          0.14749        1.53293        0.00045
O          0.40197        2.71738        0.00006
C          2.58711        1.03568       -0.00014
N          3.66223        1.45609       -0.00034
C          2.01538       -1.79768       -0.00010
N          2.84599       -2.59943       -0.00035
H         -3.32226        1.68054       -0.00023
H         -2.19971        2.75310       -0.87431
H         -2.19988        2.75352        0.87358
C         -2.84674       -0.80221       -0.00017
N         -3.92946       -1.20247       -0.00043
