17
130029656_b3lyp_0.log	Energy: -379899.5182061
C          2.79121        0.97539       -0.00001
C          1.34334        0.61330        0.00000
C          0.86225       -0.65582       -0.00000
C         -0.60155       -0.97122       -0.00001
O         -1.00937       -2.10952        0.00002
C         -1.54503        0.19689        0.00000
C         -1.08096        1.45965        0.00001
C          0.36952        1.75392        0.00001
O          0.76122        2.90638        0.00000
C          1.73696       -1.78688       -0.00005
N          2.45874       -2.68796        0.00003
H          3.43008        0.09422       -0.00003
H          3.02066        1.59217        0.87369
H          3.02063        1.59221       -0.87369
H         -1.74041        2.31961        0.00001
C         -2.94369       -0.09175       -0.00001
N         -4.07848       -0.30260       -0.00001
