21
130412007_b3lyp_4.log	Energy: -394512.1250908
C         -2.91261       -1.35918        0.37732
C         -1.56504       -1.73244       -0.25556
C         -0.54543       -0.63255       -0.10100
C         -0.94928        0.66546       -0.07922
C         -2.36665        1.00984       -0.13024
C         -3.29746        0.06650        0.08123
C          0.04815        1.77084       -0.01293
O         -0.28484        2.94376       -0.01771
C          1.48607        1.41051        0.04975
C          1.88682        0.12671        0.02524
C          0.88523       -0.99732       -0.06375
O          1.26415       -2.15364       -0.10491
H         -2.87034       -1.48397        1.46992
H         -3.68728       -2.04705        0.02922
H         -1.17463       -2.66369        0.15653
H         -1.69836       -1.90875       -1.33292
H         -2.62658        2.04943       -0.28331
H         -4.34837        0.33661        0.10494
H          2.18423        2.23717        0.10998
C          3.26991       -0.22736        0.08101
N          4.39265       -0.49238        0.12792
