19
13839673_b3lyp_prop_0.log	Energy: -417004.5291093
C          1.04332        0.27794        0.00000
C          0.40800        1.48213        0.00000
C         -1.05749        1.67659        0.00001
O         -1.56198        2.78135        0.00001
C         -1.83673        0.40455       -0.00000
N         -3.13993        0.29764       -0.00000
O         -3.38175       -1.08349       -0.00002
C         -2.22231       -1.74983       -0.00001
C         -1.18751       -0.86365        0.00000
C          0.26898       -1.02958        0.00001
O          0.82485       -2.10816        0.00003
H          0.98474        2.39994        0.00000
H         -2.28018       -2.82667       -0.00001
C          2.45422        0.17399       -0.00001
C          3.65583        0.05555       -0.00001
C          5.10084       -0.09227       -0.00001
H          5.53947        0.38049        0.88374
H          5.38415       -1.14800       -0.00005
H          5.53949        0.38057       -0.88371
