23
14080455_b3lyp_prop_0.log	Energy: -454922.3584367
C          1.59767        0.29422       -1.32048
C          1.07301       -1.07625       -1.76955
O          0.19115       -1.62896       -0.79115
C         -0.69392       -0.73497       -0.29174
C         -0.57093        0.60611       -0.46623
O          0.46793        1.17905       -1.12287
C         -1.58706        1.54956        0.06189
O         -1.49803        2.75210       -0.10306
C         -2.72346        0.95623        0.81818
C         -2.82181       -0.36046        1.02478
C         -1.81837       -1.31590        0.48226
O         -1.92681       -2.51522        0.65905
H          2.15549        0.74825       -2.14298
H          0.53489       -0.96058       -2.71624
H          1.88608       -1.78943       -1.89152
H         -3.45120        1.66700        1.19287
H         -3.63514       -0.80983        1.58308
C          2.43147        0.22526       -0.12482
C          3.13802        0.17266        0.84800
C          3.97916        0.11026        2.03472
H          3.79345       -0.80680        2.60030
H          5.03836        0.13440        1.76403
H          3.78135        0.96095        2.69272
