19
14080455_b3lyp_1.log	Energy: -440342.9208197
C          2.71774       -1.36119       -0.34500
C          3.12717       -0.08950        0.37689
O          2.24800        0.98872        0.02026
C          0.94405        0.63686       -0.00988
C          0.52104       -0.65599        0.00146
O          1.36632       -1.71020       -0.00781
C         -0.91626       -1.01262        0.02443
O         -1.29858       -2.16130        0.04875
C         -1.89113        0.13910        0.00251
C         -1.46395        1.41264       -0.05314
C         -0.01733        1.76001       -0.05635
O          0.33909        2.92258       -0.08377
H          2.78745       -1.22749       -1.42913
H          3.33442       -2.20742       -0.04421
H          3.08635       -0.23323        1.46115
H         -2.14689        2.25321       -0.08389
H          4.12941        0.22756        0.09079
C         -3.28123       -0.18599        0.02948
N         -4.41002       -0.42729        0.05192
