23
14080455_b3lyp_prop_1.log	Energy: -454923.1460201
C         -1.00763       -1.61480        0.27084
C         -1.50866       -0.38357       -0.49480
O         -0.71852        0.76848       -0.11239
C          0.60993        0.51590       -0.03180
C          1.13393       -0.73711       -0.00985
O          0.37076       -1.85634       -0.02259
C          2.59947       -0.96519        0.02086
O          3.07700       -2.08471        0.01946
C          3.46415        0.24477        0.06812
C          2.94896        1.47771        0.09026
C          1.48098        1.71704        0.03511
O          1.02473        2.84490        0.03336
H         -1.54997       -2.50837       -0.03269
H         -1.34712       -0.54987       -1.56722
H          4.53055        0.05180        0.09358
H          3.56151        2.37086        0.13767
H         -1.13250       -1.45388        1.34594
C         -2.90974       -0.10717       -0.23134
C         -4.07721        0.08576       -0.01341
C         -5.48575        0.34364        0.24911
H         -6.07436        0.28122       -0.67016
H         -5.89184       -0.37731        0.96379
H         -5.61865        1.34504        0.66776
