18
141265078_b3lyp_2.log	Energy: -369795.1040391
C         -3.93456       -0.27875        1.47139
C         -3.30182       -0.33338        0.45176
C         -2.51890       -0.41467       -0.78113
C         -1.03667       -0.25274       -0.51656
C         -0.18625       -1.28851       -0.43215
C          1.25412       -1.13142       -0.13885
O          2.00208       -2.08551       -0.07426
C          1.75523        0.27065        0.08207
C          0.91476        1.31800       -0.01306
C         -0.52011        1.14009       -0.34849
O         -1.23730        2.11189       -0.50209
H         -4.50098       -0.22357        2.36904
H         -2.84774        0.37193       -1.46705
H          1.24416        2.34037        0.13141
H         -2.69661       -1.37797       -1.26743
H         -0.51385       -2.31450       -0.56394
C          3.14026        0.44108        0.38671
N          4.25719        0.59581        0.63409
