17
152386883_b3lyp_0.log	Energy: -379897.2937265
C          1.84688        0.85909        0.24260
C          1.48293       -0.42275        0.04707
C          0.07656       -0.77870       -0.34737
O         -0.24050       -1.92574       -0.57892
C         -0.90794        0.34074       -0.46382
C         -0.52053        1.61116       -0.27558
C          0.87252        1.96576        0.08148
O          1.21299        3.12415        0.24092
C         -2.33071       -0.04870       -0.81188
C         -3.07653       -0.49899        0.36524
N         -3.66442       -0.83197        1.29869
H          2.85697        1.13992        0.51701
H         -1.20724        2.44658       -0.36482
H         -2.85448        0.80354       -1.25094
H         -2.32352       -0.86082       -1.54367
C          2.41348       -1.49785        0.18595
N          3.17991       -2.35306        0.30191
