15
20443080_b3lyp_0.log	Energy: -413104.5316174
O         -1.40795        2.02895       -0.00000
O          0.87619       -2.78787        0.00011
N          1.96992        2.97343       -0.00025
N         -4.27133       -0.08372       -0.00001
C          0.60537        0.78590       -0.00006
C         -1.70054       -0.32417        0.00013
C         -0.89156        0.93824       -0.00001
C          1.19280       -0.43977       -0.00001
C         -1.11081       -1.53482        0.00018
C          0.35898       -1.69249        0.00014
C          1.35939        1.99377       -0.00019
C         -3.12139       -0.18082        0.00021
H         -1.68270       -2.45525        0.00026
C          2.60604       -0.61151       -0.00009
N          3.75100       -0.75820       -0.00015
