18
22489347_b3lyp_1.log	Energy: -369833.4700590
C          0.22964       -2.18966        0.00000
C         -1.25299       -1.97739       -0.00009
C         -1.53540       -0.64924        0.00002
C         -0.26519        0.09344       -0.00001
C          0.76404       -0.79235        0.00008
C          2.17143       -0.36750        0.00028
O          3.10103       -1.15979       -0.00012
C          2.40217        1.10524       -0.00000
C          1.39109        1.98559       -0.00008
C         -0.03676        1.55905       -0.00011
O         -0.94539        2.36797        0.00007
H          0.56793       -2.76248       -0.87317
H          0.56778       -2.76247        0.87324
H          3.44096        1.41688       -0.00005
H          1.55482        3.05756       -0.00016
H         -1.98415       -2.77357       -0.00015
C         -2.84725       -0.09503        0.00002
N         -3.93102        0.30369       -0.00000
