19
23115907_b3lyp_prop_2.log	Energy: -417029.6674605
C         -3.18269       -0.56125        0.00029
C         -3.10602        0.77867        0.00020
C         -1.81058        1.52664        0.00014
O         -1.75625        2.74178        0.00011
C         -0.64953        0.63470       -0.00014
C         -0.69169       -0.73089       -0.00002
C         -1.98177       -1.45690        0.00068
O         -2.08806       -2.66565       -0.00001
N          0.58610       -1.23284       -0.00046
C          1.34737       -0.17030       -0.00060
O          0.64763        1.01758       -0.00034
H         -4.13629       -1.07752        0.00025
H         -3.99254        1.40340        0.00013
C          2.75118       -0.09767       -0.00091
C          3.95529       -0.03930       -0.00071
C          5.40567        0.02268        0.00068
H          5.79139        0.03171        1.02427
H          5.82927       -0.84358       -0.51456
H          5.75550        0.92795       -0.50267
