23
23162507_b3lyp_3.log	Energy: -395282.1716797
C          3.73776        0.34456        0.38580
C          2.26374        0.39018        0.12328
C          1.57882        1.52560       -0.11012
C          0.11962        1.55692       -0.37294
O         -0.46843        2.59770       -0.61974
C         -0.57503        0.25307       -0.34128
C          0.07795       -0.89981       -0.12776
C          1.53876       -0.92759        0.12484
O          2.12906       -1.97530        0.32575
C         -0.83609       -2.09399       -0.14691
C         -2.13769       -1.51742       -0.75957
C         -2.06650        0.02998       -0.53157
H          4.24243       -0.27789       -0.35833
H          3.94025       -0.11486        1.35728
H          4.17069        1.34507        0.36745
H         -0.98553       -2.46685        0.87281
H         -2.15007       -1.69864       -1.83630
H         -2.45322        0.59272       -1.38532
H          2.06961        2.49331       -0.12586
H         -0.42457       -2.92426       -0.72427
H         -3.04167       -1.95334       -0.33609
C         -2.82120        0.45738        0.65270
N         -3.41912        0.75889        1.59168
