27
23162507_b3lyp_prop_2.log	Energy: -409863.4585973
C         -4.27414       -1.03533       -0.26176
C         -2.95810       -0.32851       -0.14725
C         -2.82211        1.00997       -0.17204
C         -1.51103        1.69565       -0.05841
O         -1.42515        2.91421       -0.09989
C         -0.32430        0.82904        0.10814
C         -0.43370       -0.51178        0.13662
C         -1.73603       -1.19564        0.00195
O         -1.82801       -2.41320        0.01041
C          0.90398       -1.18698        0.26741
C          1.83658       -0.00829        0.69922
C          1.10371        1.28529        0.21453
H         -4.45455       -1.65743        0.61942
H         -4.27301       -1.71397       -1.11923
H         -5.09349       -0.32387       -0.36997
H          1.21395       -1.60800       -0.69554
H          1.83585        0.01520        1.79518
H          1.23704        2.12739        0.89614
H          1.47261        1.60992       -0.76495
H         -3.67861        1.66782       -0.28047
H          0.90350       -2.00897        0.98558
C          3.21584       -0.12991        0.24255
C          4.35520       -0.23061       -0.13641
C          5.73438       -0.35271       -0.59404
H          6.43144       -0.34279        0.24888
H          5.88600       -1.28707       -1.14227
H          6.00293        0.47258       -1.25987
