25
265508_b3lyp_prop_3.log	Energy: -443101.5228388
C          4.25902       -1.91288        0.00000
C          3.12158       -0.92995        0.00002
C          1.78713       -1.34811        0.00000
C          0.77548       -0.39242       -0.00000
C          1.12751        0.96185        0.00000
C          2.48904        1.28369        0.00001
N          3.45882        0.37327        0.00002
C          0.08546        2.01992       -0.00000
O          0.36279        3.21064       -0.00001
C         -1.32145        1.57763       -0.00000
C         -1.69968        0.27522       -0.00001
C         -0.66062       -0.81770       -0.00001
O         -0.97602       -1.98959       -0.00003
H          4.88974       -1.75434       -0.87883
H          3.90479       -2.94447        0.00026
H          4.89007       -1.75399        0.87853
H          1.52703       -2.39922        0.00000
H          2.78788        2.32681        0.00002
H         -2.05918        2.37171       -0.00001
C         -3.05797       -0.12688       -0.00003
C         -4.20841       -0.49221       -0.00002
C         -5.59071       -0.94031        0.00004
H         -6.11951       -0.57158        0.88396
H         -6.11973       -0.57119       -0.88357
H         -5.64540       -2.03214       -0.00018
