31
346879_b3lyp_2.log	Energy: -539579.9712349
C          4.55898        1.54306        0.00039
C          3.24279        0.81443        0.00020
C          2.03384        1.50478        0.00021
C          0.80694        0.83764        0.00009
C          0.77178       -0.56537       -0.00013
C          1.96978       -1.27812       -0.00012
C          3.19070       -0.60077        0.00005
C         -0.51947       -1.31486       -0.00054
O         -0.53944       -2.53416       -0.00041
C         -1.77500       -0.51019       -0.00020
C         -1.74074        0.89503       -0.00002
C         -0.45570        1.64243        0.00024
O         -0.42031        2.86198       -0.00007
C         -2.94624        1.60602       -0.00036
C         -4.15720        0.93078       -0.00079
C         -4.20754       -0.47351       -0.00063
C         -3.00372       -1.17651       -0.00056
C         -5.53291       -1.19144        0.00149
H          4.40621        2.62241       -0.00025
H          5.15573        1.27754       -0.87716
H          5.15488        1.27851        0.87884
H         -2.90852        2.68843       -0.00057
H         -5.08361        1.49631       -0.00143
H         -2.99571       -2.26017       -0.00106
H         -6.10984       -0.94462        0.89810
H         -6.13794       -0.90023       -0.86235
H         -5.40036       -2.27380       -0.02714
H          2.02371        2.58817        0.00034
H          1.93713       -2.36028       -0.00030
C          4.40760       -1.35588        0.00006
N          5.39614       -1.95428        0.00007
