26
4055_b3lyp_prop_3.log	Energy: -433039.1401433
C          3.90888       -1.97083       -0.00019
C          2.87398       -0.88755       -0.00009
C          3.17230        0.42510       -0.00024
C          2.15689        1.49934       -0.00010
O          2.49593        2.67374       -0.00029
C          0.72657        1.08875        0.00010
C         -0.28299        2.05436        0.00023
C         -1.61646        1.67372        0.00038
C         -1.97480        0.31049        0.00024
C         -0.95688       -0.65576        0.00028
C          0.38250       -0.27366        0.00019
C          1.44154       -1.32707        0.00020
O          1.16402       -2.51488        0.00025
H          4.91560       -1.55164       -0.00038
H          3.78831       -2.61648       -0.87444
H          3.78859       -2.61639        0.87416
H         -1.20188       -1.71007        0.00038
H          4.20151        0.77093       -0.00046
H         -0.00102        3.10054        0.00025
H         -2.39791        2.42315        0.00059
C         -3.34548       -0.08092       -0.00012
C         -4.50567       -0.41420       -0.00061
C         -5.90302       -0.82128       -0.00071
H         -6.27788       -0.93109        1.02152
H         -6.52790       -0.08176       -0.50937
H         -6.03115       -1.78096       -0.50934
