28
599944_b3lyp_prop_3.log	Energy: -433762.5154173
C          2.83908       -1.90444       -0.47651
C          1.55001       -1.58867        0.32691
C          0.46018       -2.54616       -0.06832
C         -0.70097       -2.19184       -0.60848
C         -1.11783       -0.75512       -0.83255
C         -0.02635        0.22743       -0.43803
C          1.13300       -0.14714        0.14517
C          2.05934        0.89808        0.68700
O          3.03080        0.59618        1.36294
C          1.75211        2.32515        0.42651
C          0.65609        2.68335       -0.24844
C         -0.28381        1.66233       -0.77018
O         -1.21307        1.98941       -1.48944
H          2.67414       -1.73990       -1.54464
H          3.11169       -2.95381       -0.33619
H          3.67339       -1.28875       -0.14193
H         -1.34157       -0.60089       -1.89709
H          2.46476        3.04038        0.82209
H          0.40506        3.71528       -0.46746
H          1.79534       -1.73607        1.38623
H          0.68015       -3.60029        0.07781
H         -1.43467       -2.94179       -0.88419
C         -2.35265       -0.47198       -0.08205
C         -3.35888       -0.28021        0.55059
C         -4.58194       -0.02742        1.30201
H         -5.23069        0.67554        0.77150
H         -5.14514       -0.95201        1.45908
H         -4.35857        0.39743        2.28499
