31
616789_b3lyp_6.log	Energy: -539572.0251208
C         -3.12702       -2.89337        0.91796
C         -3.01532       -2.16762       -0.43543
C         -2.74658       -0.68269       -0.29270
C         -1.46730       -0.09395       -0.12460
C         -1.36079        1.31466       -0.00061
C         -2.49747        2.12212       -0.01700
C         -3.74986        1.54604       -0.17435
C         -3.85997        0.16768       -0.31765
C         -0.04607        2.01058        0.13717
O          0.02354        3.21991        0.28016
C          1.18836        1.18025        0.07710
C          2.44043        1.80205        0.13598
C          3.59827        1.04466        0.07748
C          3.51106       -0.35502       -0.03545
C          2.26301       -0.97999       -0.08553
C          1.09827       -0.21255       -0.03387
C         -0.22490       -0.92029       -0.07716
O         -0.23957       -2.14051       -0.06632
H         -2.18998       -2.83263        1.47249
H         -3.35585       -3.95046        0.75957
H         -3.92349       -2.46263        1.53135
H         -3.96063       -2.27981       -0.97528
H          2.18081       -2.05625       -0.16317
H         -2.23857       -2.64370       -1.03110
H         -2.37262        3.19226        0.08651
H         -4.63844        2.16678       -0.19478
H         -4.84108       -0.27443       -0.45621
H          2.48028        2.88021        0.22660
H          4.57111        1.51862        0.11861
C          4.70783       -1.13932       -0.09617
N          5.67785       -1.76466       -0.14519
