31
616789_b3lyp_3.log	Energy: -539571.5591122
C         -2.76871       -2.47271        0.95254
C         -2.44906       -1.76625       -0.37885
C         -1.89030       -0.37150       -0.19019
C         -0.51342       -0.06478       -0.04582
C         -0.10075        1.28073        0.08951
C         -1.03361        2.31667        0.13204
C         -2.38086        2.03466        0.01647
C         -2.80077        0.70869       -0.15450
C          1.34467        1.67783        0.17020
O          1.65989        2.84561        0.32631
C          2.36309        0.61046        0.02906
C          3.72017        0.94919        0.00532
C          4.68105       -0.04489       -0.12593
C          4.29295       -1.38471       -0.22449
C          2.94687       -1.72789       -0.19018
C          1.97124       -0.73240       -0.06975
C          0.53338       -1.14050       -0.01974
O          0.25004       -2.32477        0.05383
H         -1.86627       -2.60721        1.54986
H         -3.19247       -3.45994        0.75315
H         -3.49897       -1.90673        1.53645
H         -3.36835       -1.68693       -0.96426
H          3.99506        1.99310        0.09081
H          5.73236        0.21812       -0.14937
H          5.04424       -2.15966       -0.32522
H          2.62841       -2.76052       -0.25518
H         -1.74849       -2.37518       -0.94497
H         -0.67664        3.33156        0.24808
H         -3.11837        2.82734        0.04406
C         -4.20904        0.47775       -0.29577
N         -5.35018        0.33105       -0.40343
