19
70407085_b3lyp_prop_1.log	Energy: -417000.6393186
C         -0.74578        1.79608        0.12756
C         -1.00500        0.47407       -0.01302
C          0.13036       -0.49058       -0.24366
O         -0.03772       -1.66739       -0.46626
C          1.50702        0.09193       -0.21110
C          1.74870        1.39797       -0.08658
C          0.62107        2.34593        0.08991
O          0.83181        3.54193        0.21218
O          2.57473       -0.77038       -0.45199
C          2.66462       -1.90280        0.17893
N          2.87481       -2.90069        0.72209
H          2.75206        1.80556       -0.10487
H         -1.54226        2.51470        0.27709
C         -2.30643       -0.07712        0.02344
C         -3.40372       -0.57930        0.05651
C         -4.72120       -1.18919        0.09513
H         -5.19458       -1.02783        1.06809
H         -5.37226       -0.75654       -0.67007
H         -4.65498       -2.26620       -0.07905
