23
78494_b3lyp_prop_2.log	Energy: -361268.7771813
C          2.80509       -2.24354        0.82625
C          2.58306       -1.43291       -0.46466
C          1.59852       -0.30839       -0.28864
C          1.96094        0.98037       -0.16487
C          0.98399        2.07078        0.04135
O          1.34915        3.23354        0.15564
C         -0.44326        1.71113        0.10794
C         -0.86488        0.43222       -0.02157
C          0.14411       -0.67116       -0.24605
O         -0.21671       -1.82217       -0.39736
H          3.19286       -1.60830        1.62698
H          3.52866       -3.04290        0.64788
H          1.87475       -2.70127        1.16658
H          3.53398       -1.01494       -0.80557
H          2.21640       -2.10412       -1.24594
H          3.00122        1.28884       -0.20636
H         -1.13833        2.52751        0.26400
C         -2.23079        0.05919        0.03169
C         -3.38941       -0.27671        0.07305
C         -4.78171       -0.69136        0.11914
H         -5.08222       -0.92318        1.14554
H         -5.44101        0.09716       -0.25411
H         -4.93976       -1.58763       -0.48704
