23
8530_b3lyp_prop_3.log	Energy: -408357.6665818
C          3.79520       -0.35989       -0.00003
C          3.25000       -1.64631       -0.00003
C          1.87026       -1.82086       -0.00000
C          1.02466       -0.70798        0.00000
C         -0.45242       -0.91816        0.00003
O         -0.94311       -2.03017        0.00010
C         -1.32855        0.31202       -0.00004
C         -0.77132        1.54719       -0.00006
C          0.68240        1.78085        0.00001
O          1.12709        2.92001        0.00009
C          1.57404        0.58521        0.00000
C          2.96035        0.75273       -0.00001
H         -1.38778        2.43868       -0.00009
H          3.36050        1.75922       -0.00001
H          4.87122       -0.22796       -0.00005
H          3.90328       -2.51142       -0.00005
H          1.42811       -2.80950        0.00001
C         -2.73048        0.10833       -0.00005
C         -3.92232       -0.08287       -0.00007
C         -5.35600       -0.32058       -0.00003
H         -5.82639        0.13442       -0.87680
H         -5.57338       -1.39189       -0.01318
H         -5.82231        0.11163        0.89038
