23
8530_b3lyp_prop_2.log	Energy: -408353.4784738
C          0.46148        2.76152        0.00004
C         -0.80286        2.19071        0.00003
C         -0.98037        0.79234        0.00002
C          0.17086       -0.03455        0.00002
C          0.06409       -1.52297        0.00005
O         -0.99983       -2.11955        0.00010
C          1.32849       -2.30467        0.00001
C          2.53857       -1.73351       -0.00001
C          2.69664       -0.26464       -0.00003
O          3.80782        0.24078       -0.00011
C          1.45015        0.56432        0.00001
C          1.59184        1.95041        0.00003
H          1.19530       -3.38115        0.00001
H          3.45730       -2.30991       -0.00002
H          2.59062        2.36840        0.00002
H          0.56506        3.84055        0.00006
H         -1.68574        2.81806        0.00003
C         -2.31649        0.30234       -0.00001
C         -3.48361       -0.00493       -0.00003
C         -4.86493       -0.45787       -0.00008
H         -5.39827       -0.09306        0.88302
H         -5.39811       -0.09333       -0.88338
H         -4.91315       -1.55055        0.00008
