23
8718_b3lyp_prop_0.log	Energy: -361273.6277548
C         -0.58434        2.60386       -0.00019
C          0.13566        1.29222        0.00001
C         -0.48332        0.07982       -0.00003
C          0.31511       -1.19825       -0.00021
O         -0.23747       -2.28231       -0.00061
C          1.81001       -1.11451        0.00014
C          2.39464        0.09341        0.00021
C          1.62487        1.35356        0.00007
O          2.20472        2.43130        0.00005
C          2.56050       -2.41079        0.00025
H         -0.29748        3.19401       -0.87548
H         -0.29405        3.19622        0.87241
H         -1.66359        2.46220        0.00194
H          3.47343        0.21172        0.00038
H          3.63730       -2.23766        0.00099
H          2.29315       -3.01050        0.87457
H          2.29432       -3.00994       -0.87483
C         -1.89472       -0.07358       -0.00007
C         -3.09008       -0.24213       -0.00002
C         -4.52797       -0.45855        0.00019
H         -4.98209       -0.07083        0.91711
H         -5.00135        0.04736       -0.84659
H         -4.75968       -1.52491       -0.06801
