20
10154120_b3lyp_1_Li.log	Energy: -379363.5786908
C         -4.87627       -0.98793        0.00014
C         -3.46556       -0.59300        0.00004
C         -2.26150       -0.41917       -0.00003
C         -0.85931       -0.14593       -0.00008
C          0.06469       -1.19708       -0.00011
C          1.45192       -0.95352       -0.00011
O          2.35493       -1.89710       -0.00014
C          1.82472        0.43888       -0.00007
C          0.90185        1.49874       -0.00004
C         -0.47397        1.24369       -0.00007
O         -1.38392        2.19046       -0.00009
H         -4.95418       -2.07865        0.00010
H         -5.40541       -0.62280       -0.88556
H         -5.40517       -0.62290        0.88602
H          1.24060        2.52762       -0.00002
H         -0.27398       -2.22645       -0.00012
C          3.22727        0.59858        0.00007
N          4.38622        0.46864        0.00021
Li         4.08025       -1.57034        0.00032
Li        -3.03904        1.73574        0.00016
