22
11029986_b3lyp_4_Li.log	Energy: -380133.6377483
C         -4.14543        0.16284        0.78853
C         -3.03582       -0.45308        0.38475
C         -2.20949       -0.05153       -0.81063
C         -0.76151        0.22568       -0.45835
C         -0.27968        1.51788       -0.33399
C          1.06565        1.84004       -0.00255
O          1.45041        3.10584        0.09952
C          1.93838        0.77650        0.20309
C          1.46795       -0.55009        0.08071
C          0.11262       -0.88019       -0.24817
O         -0.28057       -2.12364       -0.35036
H         -4.54088        1.02721        0.26197
H         -4.69933       -0.17418        1.65813
H         -2.23232       -0.87250       -1.53698
H         -2.66523       -1.31552        0.93315
H         -2.65232        0.82950       -1.28488
H         -0.95791        2.35155       -0.49715
H          2.97464        0.96921        0.45542
C          2.25559       -1.70308        0.25869
N          2.68880       -2.78381        0.35010
Li         1.89790        4.64766        0.23935
Li         0.81656       -3.47966       -0.10806
