20
11040862_b3lyp_0_Li.log	Energy: -402717.8979790
C         -0.95608        2.62335        0.00107
C         -1.52136        1.21686       -0.00018
O         -2.78127        1.14828       -0.00142
C         -0.66136        0.05803        0.00003
C          0.79454        0.17107       -0.00006
C          1.67488       -0.94982       -0.00029
O          2.96484       -0.83545       -0.00054
C          1.05389       -2.24554       -0.00006
C         -0.29587       -2.38571        0.00043
C         -1.21778       -1.27078        0.00038
O         -2.47033       -1.55547        0.00093
H         -0.33804        2.81374       -0.87986
H         -0.33630        2.81175        0.88117
H         -1.79332        3.31964        0.00253
H          1.71391       -3.10634       -0.00021
H         -0.75632       -3.36767        0.00079
C          1.56281        1.34688        0.00004
N          2.41863        2.14423        0.00016
Li         3.81886        0.71200       -0.00034
Li        -3.72828       -0.35385       -0.00149
