19
11309532_b3lyp_1_Li.log	Energy: -355458.8476377
C         -2.46861        2.17817        0.00068
C         -1.19183        1.75717       -0.00006
C         -0.63999        0.40714        0.00001
C          0.78825        0.27072       -0.00004
C          1.49078       -0.97731       -0.00003
O          2.79197       -1.03472       -0.00006
C          0.66391       -2.13138       -0.00003
C         -0.70788       -2.01983       -0.00002
C         -1.40466       -0.77835        0.00002
O         -2.72416       -0.78573       -0.00004
H         -3.29904        1.48962        0.00157
H         -2.68969        3.23952        0.00053
H          1.14809       -3.10164       -0.00004
H         -1.32072       -2.91651       -0.00003
H         -0.43673        2.54255       -0.00079
C          1.68929        1.35227       -0.00006
N          2.61956        2.05930       -0.00007
Li         3.80741        0.40302       -0.00008
Li        -4.33971       -0.88854       -0.00082
