22
11958_b3lyp_0_Li.log	Energy: -403437.2355653
C          2.42562        1.78783       -0.00022
C          1.12951        1.02406       -0.00010
C          1.09484       -0.39771        0.00002
C         -0.09717       -1.19203        0.00014
O         -0.05903       -2.49104        0.00020
C         -1.31712       -0.44451       -0.00000
C         -1.29349        0.93824       -0.00009
C         -0.08967        1.69828       -0.00010
O         -0.15027        3.02612        0.00018
O         -2.45526       -1.20414       -0.00002
C         -3.70091       -0.53603       -0.00018
H          3.29180        1.12182       -0.00047
H          2.50391        2.43704        0.87979
H          2.50358        2.43729       -0.88008
H         -2.21695        1.50416       -0.00013
H         -3.82608        0.08937        0.89265
H         -3.82594        0.08921       -0.89314
H         -4.46056       -1.31745       -0.00017
C          2.23708       -1.22200       -0.00004
N          3.01580       -2.09297       -0.00013
Li         1.43981       -3.40222        0.00041
Li        -0.13850        4.63723        0.00057
