24
12488903_b3lyp_0_Li.log	Energy: -474546.6860264
C          3.18183       -1.47169        0.41392
C          1.91191       -0.70694        0.12989
C          1.91188        0.70704        0.12979
C          0.73308        1.48210       -0.12252
O          0.62912        2.80411       -0.15072
C         -0.37354        0.68020       -0.35396
C         -0.37353       -0.68024       -0.35376
C          0.73310       -1.48208       -0.12210
O          0.62916       -2.80409       -0.14995
O         -1.68725       -1.15241       -0.70268
C         -2.51245       -0.00010       -0.54003
O         -1.68733        1.15227       -0.70276
C          3.18167        1.47189        0.41413
H          3.96844       -1.23090       -0.30992
H          2.98544       -2.54274        0.36454
H          3.58157       -1.23823        1.40712
H         -3.28507       -0.00015       -1.30864
H          3.57915        1.24107        1.40890
H          3.96967        1.22855       -0.30729
H          2.98591        2.54290        0.36162
C         -3.14626       -0.00003        0.80385
N         -3.71869        0.00011        1.80434
Li        -1.05198        3.11879       -0.49808
Li        -1.05136       -3.11918       -0.49965
