23
12913941_b3lyp_0_Li.log	Energy: -427335.5553730
C          1.38380        0.81429       -0.07506
C          2.07917       -0.48724        0.33953
O          1.58589       -1.58594       -0.41044
C          0.21949       -1.87133       -0.08450
C         -0.66701       -0.65146       -0.03630
C         -0.11466        0.63490       -0.03814
C         -0.94256        1.78042       -0.00833
O         -0.41583        3.00256       -0.03370
C         -2.33057        1.57366        0.04518
C         -2.87660        0.29317        0.06100
C         -2.06297       -0.84963        0.02399
O         -2.57194       -2.08183        0.04140
H          1.68303        1.62261        0.59964
H          1.72601        1.09501       -1.07852
H          1.90620       -0.66371        1.41349
H         -0.11989       -2.56312       -0.85792
H          0.18773       -2.41366        0.87525
H         -2.97846        2.44459        0.07214
H         -3.95343        0.15797        0.09972
C          3.53422       -0.41612        0.14194
N          4.67504       -0.31206        0.01149
Li         0.18556        4.49315       -0.12757
Li        -3.28397       -3.52563        0.06150
