23
12913941_b3lyp_1_Li.log	Energy: -427346.9561501
C          1.12267       -1.90475       -0.04217
C         -0.22514       -2.54131        0.25238
O         -1.21727       -2.07496       -0.67755
C         -1.45975       -0.68697       -0.60464
C         -0.25620        0.18600       -0.28614
C          1.00045       -0.40146       -0.08617
C          2.13652        0.41431        0.09649
O          3.34530       -0.11967        0.26800
C          1.94125        1.80780        0.08861
C          0.68519        2.38001       -0.07914
C         -0.46342        1.58573       -0.25480
O         -1.68354        2.09486       -0.36723
H          1.84317       -2.18959        0.73215
H          1.51225       -2.29785       -0.99075
H         -0.54695       -2.31712        1.27882
H         -1.86466       -0.39620       -1.58194
H          2.81132        2.44289        0.22803
H          0.56421        3.45834       -0.06991
H         -0.21109       -3.62459        0.12458
C         -2.57778       -0.39896        0.34776
N         -3.45944       -0.09341        1.03409
Li         4.86291       -0.63183        0.42305
Li        -3.15317        1.87643        0.46414
