19
129812261_b3lyp_0_Li.log	Energy: -402476.8652177
C          3.80121        0.28730       -0.00008
C          2.59281        0.15485       -0.00003
C          1.20163       -0.13064        0.00007
C          0.24584        0.91872        0.00007
C         -1.14398        0.60945        0.00018
O         -2.08178        1.50394       -0.00016
C         -1.46324       -0.79709        0.00007
C         -0.51482       -1.82535        0.00007
C          0.85671       -1.52573        0.00014
O          1.78577       -2.44642        0.00007
C          0.65330        2.27808       -0.00004
C          1.01010        3.43055       -0.00010
H          4.82730        0.57059       -0.00011
H         -0.81983       -2.86456        0.00001
H          1.31575        4.44752        0.00023
C         -2.86220       -1.00285        0.00001
N         -4.02400       -0.91753       -0.00007
Li        -3.80205        1.14166       -0.00033
Li         3.45163       -1.99993       -0.00005
