22
134204124_b3lyp_1_Li.log	Energy: -380138.0656860
C          0.32041        2.63807        0.09501
C          0.11143        1.14237        0.07803
C          1.19037        0.23278        0.07504
C          0.99814       -1.20108        0.07063
O          2.00582       -2.03933        0.16413
C         -0.32032       -1.66087        0.01574
C         -1.38922       -0.75372       -0.01723
C         -1.22593        0.67079        0.02123
O         -2.27040        1.46232        0.00020
C          2.54522        0.79543        0.12122
C          3.66763        0.37670       -0.50478
H          0.95098        2.97445       -0.73406
H          0.79534        2.97580        1.02451
H         -0.64652        3.13314        0.01690
H          2.64788        1.70110        0.71659
H          4.58705        0.94646       -0.42828
H          3.63724       -0.41530       -1.25340
H         -0.49640       -2.72945        0.01013
C         -2.75021       -1.12331       -0.07920
N         -3.91421       -1.17961       -0.12635
Li         3.64107       -1.68304        0.39710
Li        -3.92260        0.87782       -0.07601
