20
141265078_b3lyp_1_Li.log	Energy: -379354.3420840
C          3.57579        1.41845        0.88107
C          2.58508        1.30631        0.19583
C          1.40193        1.18733       -0.66219
C          0.44580        0.06695       -0.29537
C         -0.93854        0.32655       -0.10233
C         -1.90449       -0.70279        0.16663
O         -3.16534       -0.42294        0.33992
C         -1.37943       -2.02042        0.22263
C         -0.03653       -2.26953        0.03639
C          0.92331       -1.24666       -0.21988
O          2.20261       -1.53516       -0.37623
H          4.39489        1.64190        1.52356
H          1.75420        1.05379       -1.69458
H         -2.07436       -2.82972        0.41806
H          0.33831       -3.28722        0.08210
H          0.88936        2.15493       -0.63579
C         -1.54349        1.59460       -0.14799
N         -2.26163        2.51678       -0.13544
Li        -3.80279        1.21397        0.25820
Li         3.62088       -0.76431        0.10734
