20
141265078_b3lyp_3_Li.log	Energy: -379346.5675962
C         -3.94639        0.52980        1.17525
C         -3.17715        0.48180        0.25095
C         -2.24810        0.41293       -0.87853
C         -0.85856       -0.07227       -0.49808
C         -0.57696       -1.42219       -0.37455
C          0.69828       -1.93750       -0.01726
O          0.89445       -3.24510        0.08750
C          1.71107       -1.01049        0.21316
C          1.44351        0.36946        0.08633
C          0.15794        0.89778       -0.26991
O         -0.04205        2.18357       -0.37811
H         -4.61729        0.57649        1.99708
H         -2.15552        1.41034       -1.31733
H         -2.67342       -0.24627       -1.64346
H         -1.36868       -2.14561       -0.55159
H          2.70188       -1.35252        0.48890
C          2.38587        1.39427        0.29671
N          2.96807        2.39941        0.41538
Li         1.10331       -4.83605        0.24222
Li         1.22345        3.36687       -0.06248
