20
141333781_b3lyp_0_Li.log	Energy: -402665.5281615
C         -0.60134       -1.59503       -0.65622
C         -1.89243       -0.71373       -0.67071
O         -1.46957        0.66965       -0.58572
C         -0.08392        0.66178       -0.23560
C          0.45857       -0.60292       -0.25122
C          1.81763       -0.77570        0.05903
O          2.39447       -1.97360        0.05961
C          2.51703        0.41317        0.36875
C          1.91942        1.67742        0.37411
C          0.55148        1.86951        0.06863
O         -0.11573        3.01202        0.05833
H         -0.70419       -2.43034        0.04006
H         -0.42397       -2.01399       -1.65237
H         -2.45586       -0.82720       -1.59893
H          3.57010        0.32415        0.61842
H          2.50751        2.55317        0.62843
C         -2.80371       -1.00318        0.44698
N         -3.54298       -1.23278        1.30183
Li         3.27973       -3.31744        0.16727
Li        -1.76716        2.57449       -0.31016
