24
14289169_b3lyp_1_Li.log	Energy: -380910.5075702
C          0.56524        3.00673        0.87648
C          0.32070        2.23970       -0.43602
C          0.22651        0.74617       -0.24303
C         -1.03427        0.10604       -0.12728
C         -1.19519       -1.30755        0.07845
O         -2.37788       -1.84989        0.17625
C          0.00908       -2.04359        0.15949
C          1.25330       -1.44278        0.04738
C          1.38392       -0.03260       -0.15269
O          2.59503        0.51023       -0.25295
C          2.50802       -2.27074        0.13498
H         -0.26026        2.85590        1.57734
H          0.65884        4.08242        0.69363
H          1.48047        2.65683        1.36052
H         -0.59623        2.61357       -0.90402
H         -0.07115       -3.11505        0.31177
H          3.14423       -1.93535        0.96161
H          2.27418       -3.32621        0.28692
H          3.10511       -2.17726       -0.77894
H          1.13901        2.45182       -1.13135
C         -2.27768        0.76014       -0.20417
N         -3.40673        1.06173       -0.22981
Li        -3.85866       -0.90946        0.06142
Li         4.08465        1.11256       -0.38034
