23
14642912_b3lyp_1_Li.log	Energy: -404040.9767816
C         -3.61993        0.21640        0.33937
C         -2.51983       -0.27959       -0.26906
C         -1.11176        0.09539       -0.09003
C         -0.12933       -0.92892       -0.12075
C          1.25926       -0.59779       -0.07074
O          2.20808       -1.49468       -0.09896
C          1.57366        0.79539        0.03633
C          0.60375        1.80561        0.06609
C         -0.75831        1.49484       -0.01025
O         -1.65823        2.44938       -0.06846
C         -0.42061       -2.36430       -0.19240
C         -1.47019       -3.03643        0.30315
H         -3.54145        0.89950        1.18504
H         -4.59839       -0.20471        0.13451
H          0.88929        2.84863        0.12601
H          0.37222       -2.93663       -0.66509
H         -1.54048       -4.11139        0.17797
H         -2.25900       -2.56363        0.87557
H         -2.68439       -1.08700       -0.98063
C          2.96636        1.01524        0.10677
N          4.12942        0.94378        0.14929
Li         3.91892       -1.09752        0.00406
Li        -3.31257        2.30289       -0.38738
