20
22489347_b3lyp_0_Li.log	Energy: -379367.1110564
C         -1.22366       -1.25763        0.00008
C         -2.06572        0.00799        0.00001
C         -1.25600        1.10284       -0.00004
C          0.13181        0.70137       -0.00001
C          0.18083       -0.71203        0.00008
C          1.38745       -1.41262        0.00015
O          1.44054       -2.74032       -0.00001
C          2.55456       -0.61281        0.00002
C          2.51336        0.78023       -0.00006
C          1.29875        1.49678       -0.00005
O          1.25626        2.81979       -0.00005
H         -1.43170       -1.88140       -0.87897
H         -1.43172       -1.88131        0.87920
H         -1.60184        2.12817       -0.00010
H          3.51501       -1.12017       -0.00001
H          3.43990        1.34650       -0.00014
C         -3.47727        0.01155       -0.00000
N         -4.63758       -0.01559       -0.00001
Li         1.46635       -4.35057       -0.00013
Li         1.24509        4.43312       -0.00005
