25
23162507_b3lyp_3_Li.log	Energy: -404819.7493847
C          3.32686        1.62839        0.18652
C          1.94759        1.03720        0.03856
C          0.83028        1.86714       -0.07878
C         -0.48941        1.37801       -0.21579
O         -1.54707        2.16889       -0.29548
C         -0.58896       -0.02459       -0.23594
C          0.50927       -0.87847       -0.10272
C          1.80862       -0.37634        0.02829
O          2.86614       -1.18073        0.13899
C          0.07945       -2.32547       -0.15218
C         -1.44965       -2.25766        0.08165
C         -1.85237       -0.85091       -0.45276
H          3.98902        1.30612       -0.62610
H          3.80000        1.30931        1.12297
H          3.28991        2.71997        0.18011
H          0.57727       -2.94421        0.59984
H         -2.00800       -3.05916       -0.40695
H         -2.09953       -0.90846       -1.52410
H          0.96022        2.94534       -0.05703
H          0.30638       -2.77444       -1.12921
H         -1.65970       -2.30284        1.15317
C         -3.02248       -0.26432        0.18898
N         -3.93063        0.27180        0.66994
Li        -3.15664        2.12843        0.24255
Li         4.22697       -2.02756        0.26899
