31
2764161_b3lyp_2_Li.log	Energy: -582317.6443575
C         -4.18655        0.81713       -0.23672
C         -3.70522        2.14181       -0.21468
C         -2.35525        2.37204       -0.09904
C         -1.40507        1.32312        0.00325
C         -1.87546       -0.04864       -0.01466
C         -3.29968       -0.24318       -0.14002
C         -0.96949       -1.13710        0.08333
O         -1.37266       -2.38247        0.06506
C          0.41657       -0.81933        0.20419
C          0.88424        0.53964        0.22701
C         -0.02280        1.62622        0.11885
O          0.40379        2.87700        0.12005
C          2.28434        0.76702        0.36029
C          3.18304       -0.26376        0.45893
C          2.71389       -1.60719        0.42485
C          1.37411       -1.86591        0.30425
C          4.66969        0.01274        0.61725
C          5.45077       -0.26357       -0.59247
N          6.07118       -0.47290       -1.54224
H         -5.24823        0.62133       -0.32909
H          2.62904        1.79442        0.38426
H          3.42355       -2.42548        0.49482
H          1.00534       -2.88341        0.28319
H          4.83319        1.05942        0.88863
H          5.08832       -0.59289        1.42883
H         -4.40341        2.96708       -0.28948
H         -1.97782        3.38689       -0.08177
C         -3.87463       -1.54529       -0.17246
N         -4.41463       -2.57645       -0.20672
Li        -2.64551       -3.49852       -0.04331
Li         1.01555        4.37435        0.03981
