20
388306_b3lyp_1_Li.log	Energy: -413384.7514464
C          3.21230       -0.46136        0.00001
C          2.41999        0.66745        0.00002
C          1.01571        0.55457        0.00003
C          0.46840       -0.76680        0.00003
C         -0.96190       -1.01185        0.00004
O         -1.41794       -2.22530       -0.00018
C         -1.76458        0.14646        0.00009
C         -1.21081        1.45857        0.00006
C          0.15024        1.70400        0.00004
O          0.66081        2.92754       -0.00005
N          1.27327       -1.87583        0.00007
C          2.58962       -1.72146        0.00005
H          4.29359       -0.39529       -0.00008
H         -1.89049        2.30335        0.00004
H          3.18884       -2.62788       -0.00003
H          2.85544        1.65947       -0.00002
C         -3.18235        0.00496        0.00003
N         -4.33843       -0.06474        0.00002
Li        -0.05706       -3.33123       -0.00011
Li         0.93911        4.52427       -0.00020
