26
Li_11029986_b3lyp_prop_1.log	Energy: -394701.8423761
C         -4.60198        1.18321        1.03635
C         -3.71123        0.27789        0.63450
C         -2.92950        0.33695       -0.65382
C         -1.43861        0.15848       -0.44618
C         -0.59295        1.26030       -0.46430
C          0.80302        1.15801       -0.27503
O          1.60087        2.20277       -0.29529
C          1.31041       -0.16115       -0.06031
C          0.45316       -1.28217       -0.04165
C         -0.92175       -1.15218       -0.22872
O         -1.73291       -2.21056       -0.21347
H         -4.83174        2.06037        0.43799
H         -5.12573        1.08678        1.98148
H         -3.49379       -0.57734        1.27101
H         -3.28335       -0.46432       -1.31562
H         -3.12675        1.28775       -1.15717
H          0.86546       -2.27244        0.12089
H         -0.99835        2.25372       -0.63024
C          2.71294       -0.30021        0.13168
C          3.92213       -0.33330        0.28728
C          5.35342       -0.57528        0.49122
H          5.75140       -1.24624       -0.27684
H          5.94504        0.34526        0.45170
H          5.53933       -1.03543        1.46702
Li         3.27143        1.88222       -0.03725
Li        -2.71799       -3.48194       -0.21150
