28
Li_11228886_b3lyp_prop_0.log	Energy: -395473.5098489
C         -1.46852       -2.19998        1.27630
C         -0.79453       -1.66141       -0.00014
C         -1.46920       -2.20004       -1.27624
C         -0.67716       -0.14182       -0.00016
C          0.61193        0.46706       -0.00010
C          0.80554        1.88650       -0.00003
O          2.01017        2.41371        0.00013
C         -0.36448        2.67409       -0.00008
C         -1.61635        2.08786       -0.00017
C         -1.81374        0.68742       -0.00027
O         -3.05861        0.20231       -0.00015
H         -2.48800       -1.82017        1.36836
H         -0.91543       -1.88818        2.16662
H         -1.50184       -3.29541        1.26435
H          0.22423       -2.06120       -0.00045
H         -2.48870       -1.82021       -1.36785
H         -0.91651       -1.88823       -2.16680
H         -1.50238       -3.29547       -1.26422
H         -0.25113        3.75280       -0.00006
H         -2.50604        2.71178       -0.00024
C          1.80374       -0.31644       -0.00001
C          2.86974       -0.91018        0.00009
C          4.03251       -1.80381       -0.00008
H          3.69740       -2.84543        0.00027
H          4.66238       -1.66887       -0.88576
H          4.66329       -1.66853        0.88494
Li         3.34825        1.34367        0.00054
Li        -4.61714       -0.19582        0.00160
