22
Li_10986586_b3lyp_prop_3.log	Energy: -619160.5639611
C          3.08228        0.96681       -0.00000
C          3.20624       -0.43146       -0.00001
C          2.09464       -1.28539       -0.00001
O          2.17821       -2.60912       -0.00001
C          0.84855       -0.63361        0.00000
C          0.69258        0.77107        0.00001
C          1.84059        1.61369        0.00000
O          1.72218        2.93455       -0.00000
C         -0.68479        1.15365        0.00002
C         -1.56246        0.10235        0.00001
S         -0.70483       -1.45545        0.00003
H          3.97665        1.58240       -0.00000
H          4.19310       -0.88415       -0.00002
H         -1.01812        2.18266        0.00003
C         -2.97179        0.13836       -0.00000
C         -4.18146        0.14986       -0.00001
C         -5.63769        0.16846       -0.00002
H         -6.03189        0.67978        0.88443
H         -6.03186        0.68031       -0.88418
H         -6.04014       -0.84924       -0.00034
Li         1.93251       -4.20407       -0.00003
Li         1.62291        4.54055       -0.00003
