22
Li_12527779_b3lyp_prop_0.log	Energy: -510244.9313024
C          1.48662        0.43852        0.00012
C          0.81375        1.64870        0.00005
C         -0.62912        1.77876       -0.00002
O         -1.22726        2.91854        0.00006
C         -1.30261        0.54418       -0.00003
C         -0.63277       -0.70688        0.00007
C          0.76358       -0.85138        0.00012
O          1.36154       -1.98345        0.00006
C         -1.63060       -1.71645        0.00022
O         -1.53524       -2.95014        0.00036
O         -2.88398       -1.10508       -0.00010
C         -2.69373        0.27977       -0.00032
O         -3.66524        1.04666       -0.00061
H          1.38683        2.56905        0.00006
C          2.90806        0.40396        0.00020
C          4.11466        0.36501        0.00020
C          5.56858        0.31033       -0.00015
H          5.98128        0.80784        0.88295
H          5.92112       -0.72501        0.00019
H          5.98084        0.80711       -0.88388
Li        -3.02474        2.80237       -0.00056
Li         0.26906       -3.41516        0.00046
