25
Li_15736817_b3lyp_prop_1.log	Energy: -441172.3933315
C          4.24920       -1.76466        0.00028
C          3.02772       -0.91672        0.00001
C          2.83259        0.42934       -0.00008
C          1.40897        0.64421       -0.00010
C          0.84191       -0.63259       -0.00011
O          1.83255       -1.58732       -0.00008
C         -0.54053       -0.90902       -0.00016
O         -1.05615       -2.11242       -0.00026
C         -1.33525        0.27814       -0.00013
C         -0.77629        1.59115       -0.00007
C          0.59508        1.81424       -0.00006
O          1.13714        3.02737        0.00008
H          4.28051       -2.41244       -0.88189
H          4.28026       -2.41205        0.88274
H          5.14175       -1.13685        0.00030
H         -1.44425        2.44572       -0.00004
H          3.60684        1.18045        0.00011
C         -2.74376        0.09279       -0.00022
C         -3.94005       -0.14907       -0.00020
C         -5.40346       -0.23645        0.00036
H         -5.82785        0.25401       -0.88181
H         -5.76213       -1.27115       -0.00472
H         -5.82714        0.24545        0.88757
Li        -2.78170       -2.16118        0.00066
Li         1.76400        4.50708        0.00025
