24
Li_11040862_b3lyp_prop_0.log	Energy: -417261.4253375
C         -2.14625       -2.44111        0.00049
C         -0.82243       -1.65780       -0.00004
O          0.19477       -2.34741       -0.00044
C         -0.78849       -0.19181       -0.00003
C          0.50475        0.45741       -0.00000
C          0.63857        1.87099        0.00004
O          1.80279        2.46711        0.00013
C         -0.56737        2.62963       -0.00001
C         -1.79878        2.03045       -0.00007
C         -1.96369        0.61571       -0.00008
O         -3.18533        0.13796       -0.00018
H         -2.72318       -2.21790        0.90891
H         -1.89780       -3.50224        0.00089
H         -2.72332       -2.21872       -0.90806
H         -0.47077        3.71032        0.00001
H         -2.70702        2.62375       -0.00011
C          1.73167       -0.26523        0.00003
C          2.86412       -0.72295        0.00007
C          4.02291       -1.62316       -0.00004
H          3.66955       -2.65888        0.00046
H          4.65453       -1.48926       -0.88434
H          4.65525       -1.48865        0.88365
Li         3.21189        1.47284        0.00019
Li        -4.21353       -1.15032       -0.00005
