28
Li_102182508_b3lyp_prop_4.log	Energy: -442525.2239551
C         -2.05195       -0.49182        1.65459
C         -0.71985       -0.67741        1.78656
C         -0.08020       -0.88207        0.43206
C         -1.24375       -0.65683       -0.50045
C         -2.39589       -0.47905        0.20944
C          1.23763       -0.18162        0.13595
C          2.39311       -0.93614       -0.10689
C          3.63241       -0.33640       -0.37845
O          4.72764       -1.06245       -0.60813
C          3.66067        1.07192       -0.39668
C          2.52010        1.82941       -0.15818
C          1.26829        1.23700        0.11627
O          0.18591        1.95789        0.34191
H          2.34596       -2.02238       -0.08825
H          4.60639        1.56470       -0.60446
H          2.56731        2.91358       -0.17768
H         -2.78159       -0.39494        2.44901
H         -0.16337       -0.73252        2.71230
H          0.12692       -1.96653        0.37834
H         -1.15915       -0.68859       -1.57763
C         -3.71295       -0.29574       -0.29515
C         -4.84062       -0.13040       -0.69575
C         -6.19532        0.05157       -1.19823
H         -6.55430       -0.85578       -1.69345
H         -6.88880        0.28664       -0.38584
H         -6.23958        0.86792       -1.92532
Li         6.08533       -1.86763       -0.89047
Li        -1.41804        1.57760        0.69457
