33
Li_12635763_b3lyp_prop_1.log	Energy: -562108.8094929
C          1.10063        4.31663        0.00009
C          0.98094        3.10579       -0.00003
C          1.06167        1.67596       -0.00010
C         -0.07205        0.77650       -0.00008
C          0.22304       -0.64669       -0.00014
C          1.56982       -1.07649       -0.00018
C          2.63760       -0.19855       -0.00023
C          2.36058        1.19768       -0.00021
C         -0.81344       -1.61865       -0.00015
O         -0.53597       -2.91031       -0.00005
C         -2.15730       -1.16010       -0.00006
C         -3.24799       -2.07661       -0.00006
C         -4.54961       -1.64439        0.00005
C         -4.83651       -0.25418        0.00017
C         -3.81086        0.65778        0.00016
C         -2.44964        0.24635        0.00004
C         -1.41263        1.23059        0.00003
O         -1.71849        2.50548        0.00019
H          1.33107        5.35567        0.00032
H          3.18735        1.89666       -0.00021
H         -3.02255       -3.13602       -0.00015
H         -5.36329       -2.36242        0.00004
H         -5.86766        0.08320        0.00026
H         -4.00915        1.72205        0.00025
H          1.75717       -2.14184       -0.00018
C          3.98761       -0.66056       -0.00029
C          5.13598       -1.03726       -0.00016
C          6.52034       -1.49260        0.00059
H          6.76123       -2.03802        0.91894
H          6.72156       -2.15907       -0.84440
H          7.21107       -0.64722       -0.07308
Li        -0.26338       -4.50318        0.00030
Li        -1.08332        4.04266       -0.00015
