31
Li_10281_b3lyp_prop_1.log	Energy: -420151.9108994
C          2.78657        2.74882        0.00009
C          1.94861        1.49813       -0.00006
C          2.51107        0.23414       -0.00001
C          1.75910       -0.96505        0.00015
O          2.40569       -2.13420       -0.00045
C          0.35641       -0.87884        0.00020
C         -0.23586        0.41959        0.00001
C          0.53474        1.62452       -0.00022
O         -0.04328        2.80724        0.00029
C         -0.45948       -2.16395        0.00038
C         -1.30434       -2.35016        1.27626
C         -1.30401       -2.35043       -1.27568
H          3.85271        2.50740        0.00030
H          2.56834        3.36941        0.87527
H          2.56870        3.36958       -0.87506
H          0.28353       -2.96474        0.00061
H         -2.08736       -1.59335        1.36465
H         -1.78916       -3.33325        1.27583
H         -0.67518       -2.28278        2.16821
H         -0.67458       -2.28351       -2.16747
H         -1.78917       -3.33336       -1.27509
H         -2.08677       -1.59337       -1.36452
H          3.59372        0.13315       -0.00007
C         -1.64731        0.61232       -0.00033
C         -2.83953        0.87374       -0.00028
C         -4.30432        0.94949       -0.00042
H         -4.72284        0.45568       -0.88360
H         -4.72285        0.46079        0.88557
H         -4.67548        1.97986       -0.00347
Li         3.30591       -3.46486       -0.00056
Li        -1.75682        2.86826        0.00045
