23
Li_152386883_b3lyp_prop_1.log	Energy: -404023.7699166
C          0.49576        1.73966        0.10769
C          0.94758        0.41540       -0.06190
C          0.04997       -0.65567       -0.35379
O          0.47663       -1.89005       -0.50972
C         -1.32042       -0.31267       -0.46627
C         -1.74620        0.99867       -0.29990
C         -0.85976        2.06041       -0.00704
O         -1.30679        3.30143        0.15282
C         -2.30269       -1.42636       -0.77904
C         -2.82042       -2.09983        0.41617
N         -3.24477       -2.62366        1.35302
H         -2.80309        1.23583       -0.38890
H         -3.15842       -1.03947       -1.34044
H         -1.80377       -2.18253       -1.39147
H          1.20624        2.52732        0.33361
C          2.32853        0.08809        0.06621
C          3.49124       -0.26151        0.16806
C          4.93012       -0.49618        0.31841
H          5.45078        0.46000        0.42369
H          5.16181       -1.09196        1.20726
H          5.36117       -1.00400       -0.55047
Li         2.16009       -2.15437       -0.24937
Li        -1.90087        4.77752        0.39576
