32
Li_13182761_b3lyp_prop_5.log	Energy: -572207.1443024
C          4.86719       -1.20513        0.00018
C          5.05530        0.20161        0.00017
C          3.96731        1.03696        0.00012
C          2.63628        0.53290        0.00007
C          2.44452       -0.89530        0.00009
C          3.59914       -1.72833        0.00014
C          1.13913       -1.46586        0.00006
O          0.97070       -2.77444        0.00003
C          0.03218       -0.58318       -0.00001
C          0.22561        0.85021       -0.00003
C          1.52366        1.42146        0.00002
O          1.69399        2.72791        0.00003
C         -0.92415        1.67512       -0.00013
C         -2.20389        1.16412       -0.00017
C         -2.41059       -0.26931       -0.00011
C         -1.29749       -1.08213       -0.00004
C         -3.31011        2.06485       -0.00031
N         -4.18654        2.82175       -0.00043
H         -1.43700       -2.15483        0.00001
H          5.72944       -1.86371        0.00022
H          6.05981        0.61135        0.00020
H          4.10055        2.11165        0.00011
H          3.44823       -2.80057        0.00015
H         -0.78468        2.74798       -0.00017
C         -3.72733       -0.81082       -0.00012
C         -4.85650       -1.23995       -0.00006
C         -6.22718       -1.73143        0.00035
H         -6.43513       -2.33456        0.89006
H         -6.93476       -0.89723       -0.01018
H         -6.42937       -2.35209       -0.87855
Li         0.67782       -4.36593       -0.00010
Li         1.81306        4.34501       -0.00012
