23
Li_212470_b3lyp_prop_1.log	Energy: -438029.2356389
C         -0.68045        1.50684       -0.00022
C         -1.30097        0.22597       -0.00017
C         -0.53778       -0.96861       -0.00026
O         -1.04099       -2.17140       -0.00041
C          0.88560       -0.78062       -0.00007
N          1.67613       -1.90745        0.00014
C          2.98656       -1.74615        0.00034
N          3.65451       -0.57486        0.00026
C          2.90226        0.51968        0.00009
C          1.49880        0.51169       -0.00010
C          0.69336        1.69873       -0.00033
O          1.25401        2.89807       -0.00011
H          3.59754       -2.64492        0.00032
H          3.42462        1.47180        0.00006
H         -1.32090        2.38216       -0.00016
C         -2.72130        0.14400       -0.00003
C         -3.92832        0.08544        0.00014
C         -5.38120       -0.01502        0.00037
H         -5.81448        0.45257        0.89090
H         -5.81657        0.47770       -0.87545
H         -5.70000       -1.06181       -0.01405
Li         0.29418       -3.30892       -0.00007
Li         1.74310        4.44008        0.00047
