31
Li_297370_b3lyp_prop_0.log	Energy: -420154.3674408
C         -2.38753        2.46290        0.80882
C         -1.74879        1.89539       -0.47229
C         -0.48030        1.11931       -0.21340
C         -0.49691       -0.29139       -0.04018
C          0.68249       -1.05602        0.21800
O          0.62437       -2.36453        0.36944
C          1.90889       -0.34558        0.30627
C          1.90804        1.03209        0.14032
C          0.74585        1.79411       -0.11640
O          0.82950        3.11823       -0.25936
C          3.18588       -1.11034        0.56272
C          3.73979       -1.80710       -0.69240
H         -2.66861        1.65840        1.49423
H         -3.28888        3.04343        0.58123
H         -1.68264        3.11345        1.33317
H         -2.47801        1.25975       -0.98454
H         -1.51630        2.72376       -1.14903
H          2.84726        1.57568        0.21421
H          3.94177       -0.42514        0.96243
H          2.99613       -1.86987        1.32748
H          3.97206       -1.07781       -1.47463
H          4.65598       -2.36240       -0.46352
H          3.00465       -2.51039       -1.08953
C         -1.71782       -1.02248       -0.11637
C         -2.72457       -1.70968       -0.16663
C         -4.03531       -2.36025       -0.26055
H         -4.13268       -2.96981       -1.16519
H         -4.24646       -3.00230        0.60117
H         -4.82310       -1.60171       -0.29408
Li        -0.92062       -3.10128        0.24760
Li         1.02382        4.70446       -0.42141
