23
Li_265508_b3lyp_0.log	Energy: -438058.6206812
C         -2.76598       -2.39036        0.00029
C         -1.44853       -1.66397       -0.00098
C         -1.33241       -0.27198        0.00042
C         -0.04349        0.37253       -0.00082
C          1.09021       -0.50794       -0.00303
C          0.83653       -1.89306       -0.00499
N         -0.35458       -2.46432       -0.00396
C          2.43289        0.00125       -0.00381
O          3.47386       -0.81381       -0.00521
C          2.56769        1.38720       -0.00398
C          1.45851        2.24363       -0.00215
C          0.13191        1.79251       -0.00033
O         -0.88840        2.61945        0.00142
H         -2.82669       -3.03757       -0.87931
H         -3.62567       -1.72093        0.00347
H         -2.82300       -3.04125        0.87741
H          1.68831       -2.56674       -0.00825
H          3.56935        1.80546       -0.00573
H          1.61197        3.31793       -0.00222
C         -2.52840        0.49800        0.00310
N         -3.53956        1.07622        0.00539
Li         4.75933       -1.79320        0.04043
Li        -2.56352        2.82913        0.00380
