27
Li_59350876_b3lyp_prop_3.log	Energy: -418628.7550104
C          4.45568       -1.63541        0.00015
C          3.08787       -1.02887        0.00001
C          1.89761       -1.66501       -0.00005
C          0.80224       -0.69639       -0.00007
C          1.35120        0.59288       -0.00005
C          2.85448        0.47055        0.00001
C          0.56495        1.75987        0.00006
O          1.11220        2.97413        0.00006
C         -0.82147        1.56437       -0.00022
C         -1.39099        0.26907       -0.00023
C         -0.59243       -0.92095        0.00013
O         -1.13598       -2.11842       -0.00040
H          5.03530       -1.32709       -0.87947
H          4.40441       -2.72701        0.00038
H          5.03525       -1.32674        0.87966
H          3.30624        0.95491       -0.87769
H          1.74906       -2.73759       -0.00006
H          3.30619        0.95494        0.87772
H         -1.47198        2.43274       -0.00038
C         -2.80371        0.09777       -0.00037
C         -4.00115       -0.13452       -0.00042
C         -5.46526       -0.20974        0.00056
H         -5.88313        0.24497        0.90458
H         -5.88514        0.31558       -0.86328
H         -5.83302       -1.24031       -0.04107
Li         1.78921        4.43083        0.00044
Li        -2.85824       -2.15473        0.00131
