27
Li_59350876_b3lyp_prop_2.log	Energy: -418629.2101531
C         -4.53503       -1.45317        0.00004
C         -3.15848       -0.86743       -0.00010
C         -2.81490        0.43901       -0.00004
C         -1.35981        0.58596        0.00000
C         -0.79601       -0.69760        0.00003
C         -1.90418       -1.71721       -0.00004
C          0.58924       -0.91688       -0.00000
O          1.13675       -2.11511        0.00000
C          1.38808        0.27585        0.00000
C          0.81223        1.56933        0.00002
C         -0.57076        1.76362        0.00003
O         -1.11969        2.97613        0.00005
H         -4.70028       -2.08969       -0.87804
H         -5.30105       -0.67341       -0.00132
H         -4.70109       -2.08733        0.87970
H         -1.85717       -2.37951       -0.87522
H          1.46059        2.43950        0.00003
H         -3.50995        1.27027       -0.00005
H         -1.85729       -2.37952        0.87516
C          2.79982        0.10970       -0.00001
C          3.99867       -0.11854       -0.00003
C          5.46299       -0.18760       -0.00000
H          5.88054        0.30356        0.88503
H          5.83493       -1.21756       -0.00086
H          5.88060        0.30503       -0.88418
Li         2.85917       -2.14034        0.00006
Li        -1.77170        4.44375       -0.00010
