33
Li_616789_b3lyp_6.log	Energy: -549078.7542891
C         -3.09787       -2.91055        0.87597
C         -3.06669       -2.10540       -0.44324
C         -2.73849       -0.63198       -0.25443
C         -1.39479       -0.10544       -0.12696
C         -1.25183        1.33786       -0.01788
C         -2.41775        2.15447        0.00869
C         -3.67143        1.62044       -0.08818
C         -3.82063        0.22094       -0.23355
C          0.02043        1.97098        0.06097
O          0.11911        3.28739        0.15797
C          1.17424        1.15952        0.02864
C          2.48455        1.72290        0.08767
C          3.60928        0.94847        0.06524
C          3.48535       -0.47553       -0.01951
C          2.23191       -1.05294       -0.07734
C          1.05233       -0.27148       -0.05815
C         -0.21750       -0.92080       -0.11613
O         -0.25741       -2.23315       -0.14281
H         -2.19825       -2.73980        1.48073
H         -3.24760       -3.98950        0.70506
H         -3.93271       -2.58843        1.50102
H         -4.05949       -2.17774       -0.89681
H          2.12798       -2.12749       -0.14216
H         -2.37763       -2.54175       -1.17370
H         -2.27747        3.22333        0.10153
H         -4.54943        2.25730       -0.07136
H         -4.81874       -0.19208       -0.34667
H          2.57152        2.80023        0.15154
H          4.59606        1.39356        0.10998
C          4.65490       -1.29280       -0.04273
N          5.61058       -1.94703       -0.05962
Li         0.31811        4.88653        0.26622
Li        -1.05744       -3.66463        0.06130
