33
Li_73698_b3lyp_0.log	Energy: -549073.9819189
C          1.26916        3.36941        0.14320
C          1.38446        1.85608        0.06541
C          0.25745        0.94370        0.01038
C          0.53801       -0.50714        0.01293
C          1.90675       -0.95390       -0.04087
C          2.93508       -0.02372       -0.00765
C          2.66078        1.37520        0.06868
C          2.31967       -2.40903       -0.17460
C         -0.54630       -1.43808        0.06199
O         -0.36981       -2.73685        0.14754
C         -1.88379       -0.94039        0.02473
C         -2.98259       -1.84302        0.04507
C         -4.27770       -1.38977       -0.00056
C         -4.53853        0.00202       -0.06561
C         -3.49760        0.89737       -0.08162
C         -2.14590        0.45824       -0.03556
C         -1.08088        1.41027       -0.03567
O         -1.39207        2.69135       -0.07694
H          0.85537        3.78657       -0.78668
H          2.26246        3.80813        0.26022
H          0.67945        3.68195        1.01445
H          3.50244        2.05563        0.11815
H          2.16203       -2.94828        0.77253
H          1.78170       -2.88735       -0.99989
H          3.38478       -2.48902       -0.39116
H         -2.76447       -2.90167        0.09512
H         -5.10330       -2.09362        0.01266
H         -5.56331        0.35705       -0.10151
H         -3.67842        1.96309       -0.12852
C          4.30533       -0.41631       -0.04711
N          5.42786       -0.70532       -0.07258
Li         0.59061       -4.06727        0.21269
Li        -0.97698        4.27505       -0.07300
