33
Li_73698_b3lyp_3.log	Energy: -549074.8529880
C         -3.36282       -2.46999       -0.00276
C         -2.89688       -1.02306       -0.00100
C         -1.51159       -0.59844       -0.00002
C         -1.22466        0.84298        0.00001
C         -2.33659        1.77113        0.00054
C         -3.62282        1.29649        0.00028
C         -3.89925       -0.08736       -0.00082
C         -2.20394        3.28506        0.00179
C          0.12855        1.30008       -0.00027
O          0.44842        2.57634       -0.00059
C          1.17601        0.33667       -0.00015
C          2.52576        0.76418       -0.00063
C          3.56608       -0.14366       -0.00028
C          3.28804       -1.54750        0.00059
C          1.99085       -1.97849        0.00104
C          0.89545       -1.06571        0.00065
C         -0.43899       -1.54392        0.00104
O         -0.64201       -2.84750        0.00188
H         -3.03252       -2.99805       -0.90792
H         -4.45481       -2.50249       -0.00533
H         -3.03707       -2.99887        0.90369
H         -1.69424        3.64343        0.90695
H         -1.69688        3.64513       -0.90422
H         -3.19731        3.73961        0.00359
H          4.11127       -2.25177        0.00087
H          1.76232       -3.03601        0.00171
H         -4.45395        1.99418        0.00080
H         -4.93514       -0.41114       -0.00162
H          2.72405        1.82714       -0.00125
C          4.91795        0.31628       -0.00073
N          6.01710        0.68084       -0.00110
Li         0.07426        4.17178       -0.00058
Li        -1.61213       -4.16385        0.00203
