37
Li_73698_b3lyp_prop_3.log	Energy: -563650.1747278
C         -3.94203       -2.28327        0.00042
C         -3.38317       -0.86922        0.00014
C         -1.97274       -0.53621        0.00011
C         -1.59072        0.88500        0.00010
C         -2.64248        1.88221       -0.00015
C         -3.95678        1.49252       -0.00026
C         -4.32359        0.12856       -0.00006
C         -2.41353        3.38529       -0.00040
C         -0.21227        1.25112        0.00027
O          0.18719        2.50798        0.00053
C          0.77418        0.22454        0.00009
C          2.15245        0.56210        0.00009
C          3.14146       -0.40373       -0.00017
C          2.75719       -1.78389       -0.00036
C          1.43518       -2.13400       -0.00028
C          0.40086       -1.15381       -0.00007
C         -0.96344       -1.54511        0.00003
O         -1.24963       -2.83469        0.00003
H         -3.64925       -2.83272       -0.90528
H         -5.03404       -2.24483        0.00072
H         -3.64870       -2.83255        0.90603
H         -1.88348        3.71259        0.90504
H         -1.88297        3.71222       -0.90569
H         -3.37634        3.90211       -0.00080
H          3.53097       -2.54310       -0.00048
H          1.14056       -3.17537       -0.00036
H         -4.74047        2.24330       -0.00048
H         -5.37839       -0.12734       -0.00006
H          2.41797        1.61036        0.00030
C          4.52457       -0.04836       -0.00022
C          5.70116        0.22842       -0.00013
C          7.11835        0.56853        0.00032
H          7.36891        1.23511       -0.83152
H          7.40797        1.07358        0.92788
H          7.73897       -0.32776       -0.09570
Li        -0.08098        4.11790        0.00001
Li        -2.29907       -4.08328       -0.00027
