24
102182508_b3lyp_0_Li.log	Energy: -427944.3237559
C         -3.25251        0.34493        0.12083
C         -2.01227        0.88896       -0.04321
C         -1.01428        0.19146        0.87471
C         -1.87352       -0.88909        1.47854
C         -3.16624       -0.75423        1.08072
C          0.34956       -0.18552        0.32281
C          1.49371        0.50468        0.74130
C          2.77073        0.18505        0.25428
O          3.85459        0.84919        0.64658
C          2.84675       -0.87627       -0.67103
C          1.71629       -1.56627       -1.08915
C          0.42666       -1.24081       -0.61896
O         -0.65484       -1.88170       -1.02419
H         -4.16014        0.69247       -0.35622
H         -0.83670        0.90477        1.69902
H         -1.48528       -1.61026        2.18480
H         -4.01188       -1.33180        1.43402
H          1.40895        1.31597        1.45948
H          3.82350       -1.14787       -1.06066
H          1.80018       -2.37460       -1.80819
C         -1.70232        2.00126       -0.86178
N         -1.46218        2.92287       -1.51910
Li         5.17861        1.68069        1.01808
Li        -2.31082       -1.77185       -0.82875
