24
102182508_b3lyp_1_Li.log	Energy: -427934.8062620
C         -3.27842       -0.10087       -0.73869
C         -2.04064        0.20577       -1.18238
C         -1.12161        0.53774        0.00005
C         -2.04096        0.20514        1.18208
C         -3.27864       -0.10118        0.73787
C          0.28416       -0.09028        0.00006
C          1.43632        0.70734       -0.00009
C          2.72444        0.15000       -0.00010
O          3.81023        0.91821       -0.00030
C          2.80938       -1.25625        0.00012
C          1.67223       -2.05195        0.00024
C          0.37110       -1.50553        0.00013
O         -0.70292       -2.27047        0.00019
H         -4.14611       -0.29209       -1.35847
H         -1.71043        0.30411        2.20602
H         -4.14652       -0.29274        1.35729
H          1.35748        1.78856       -0.00018
H          3.79446       -1.71333        0.00013
H          1.75681       -3.13374        0.00040
H         -1.70980        0.30521       -2.20619
C         -1.04723        2.01368        0.00048
N         -1.01862        3.16749        0.00074
Li         5.07319        1.91236       -0.00039
Li        -2.36149       -2.11305       -0.00024
