18
11122_b3lyp_0_Li.log	Energy: -331555.9063182
C          1.09985        2.15285        0.00001
C          0.69833        0.70326       -0.00001
C         -0.66381        0.30831        0.00002
C         -1.10829       -1.06148        0.00002
O         -2.37779       -1.36222        0.00002
C         -0.07373       -2.02650       -0.00003
C          1.25562       -1.64696       -0.00005
C          1.68053       -0.29393       -0.00003
O          2.97490        0.01030       -0.00004
H          1.70931        2.39027        0.87917
H          0.23377        2.81852       -0.00035
H          1.70992        2.39010       -0.87877
H         -0.35613       -3.07345       -0.00004
H          2.03097       -2.40778       -0.00008
C         -1.75491        1.19874        0.00004
N         -2.80124        1.71859        0.00007
Li        -3.64500       -0.14692        0.00003
Li         4.54580        0.36755       -0.00003
