22
11958_b3lyp_1_Li.log	Energy: -403446.4964084
C          2.98571       -1.77727        0.22207
C          1.59735       -1.20936        0.09226
C          0.47684       -2.01625        0.03266
C         -0.86378       -1.53926       -0.08910
O         -1.90292       -2.34699       -0.18774
C         -1.00468       -0.15096       -0.11937
C          0.11490        0.71660       -0.09692
C          1.45596        0.21059        0.01730
O          2.47707        1.02036        0.03712
O         -2.32857        0.33714       -0.26612
C         -2.78927        1.21449        0.78168
H          2.95956       -2.86800        0.26660
H          3.48047       -1.40132        1.12297
H          3.61383       -1.47571       -0.62182
H         -2.67347        0.73276        1.75674
H         -2.24176        2.15798        0.77019
H         -3.84268        1.41873        0.58229
H          0.59145       -3.09538        0.07601
C          0.09907        2.11231       -0.21815
N          0.34525        3.25256       -0.29886
Li        -3.23696       -1.32863       -0.63462
Li         2.33650        2.76653       -0.11926
