24
12587549_b3lyp_0_Li.log	Energy: -451277.9537788
C         -1.00311        2.06897        0.38058
C         -1.39444        0.72983       -0.29747
C         -0.32059       -0.34853       -0.14233
C          1.02475        0.03677        0.01162
C          1.46407        1.48452        0.04537
C          0.36744        2.51050       -0.09587
O          0.55942        3.62460       -0.53565
C          2.04120       -0.93773        0.10641
O          3.31428       -0.57877        0.25913
C          1.66090       -2.28848        0.02527
C          0.33702       -2.66448       -0.14503
C         -0.69740       -1.71264       -0.23962
O         -1.95750       -2.07347       -0.41064
H         -0.95129        1.90930        1.46373
H         -1.72867        2.85628        0.17319
H         -1.56802        0.92443       -1.36728
H          2.22032        1.68755       -0.71893
H          1.96404        1.69669        1.00354
H          2.43860       -3.04316        0.09490
H          0.06453       -3.71230       -0.21383
C         -2.70665        0.33247        0.22301
N         -3.77058        0.12272        0.63448
Li         4.88611       -0.25527        0.40920
Li        -3.55750       -1.81936        0.05376
