24
12587549_b3lyp_1_Li.log	Energy: -451275.3746164
C         -0.48079       -2.38139        0.58607
C          0.89761       -1.96038        0.04499
C          1.04688       -0.46031       -0.04442
C         -0.07272        0.37571       -0.20413
C         -1.45963       -0.22495       -0.44020
C         -1.56952       -1.76696       -0.24427
O         -2.46387       -2.38015       -0.77426
C          0.03492        1.78923       -0.24788
O         -1.03475        2.55916       -0.35977
C          1.33625        2.32114       -0.15471
C          2.44715        1.50169       -0.01361
C          2.33957        0.10038        0.04449
O          3.41864       -0.67151        0.17325
H         -0.58729       -2.00304        1.61111
H         -0.61614       -3.46420        0.59612
H          1.05869       -2.43056       -0.93524
H         -1.77809       -0.04297       -1.47614
H          1.44650        3.39980       -0.19292
H          3.43895        1.93862        0.05768
H          1.67982       -2.35593        0.69703
C         -2.48263        0.42075        0.38218
N         -3.29572        0.95012        1.01650
Li        -2.55091        2.75642        0.37818
Li         4.83252       -1.43709        0.27584
