23
130412007_b3lyp_2_Li.log	Energy: -404045.8060800
C         -1.51026       -1.80449        0.41787
C         -0.11449       -1.92251       -0.20741
C          0.71303       -0.66548       -0.05542
C          0.04745        0.58686       -0.06370
C         -1.39377        0.61182       -0.15574
C         -2.16290       -0.48903        0.03544
C          0.77164        1.80998       -0.00059
O          0.16072        2.98313        0.00368
C          2.17504        1.71825        0.07426
C          2.81867        0.49070        0.07849
C          2.11299       -0.73166       -0.00075
O          2.76701       -1.88993       -0.03693
H         -1.43340       -1.85145        1.51353
H         -2.13760       -2.64605        0.11248
H          0.42149       -2.76612        0.23426
H          2.74721        2.63894        0.13035
H          3.90250        0.44571        0.13274
H         -0.22151       -2.15210       -1.27876
H         -1.86410        1.56477       -0.36703
C         -3.57857       -0.40976       -0.03458
N         -4.73751       -0.37164       -0.08193
Li        -0.57544        4.41999        0.06501
Li         3.59315       -3.26861       -0.12009
