28
13182761_b3lyp_5_Li.log	Energy: -557644.4696633
C          4.39975        0.44978        0.00009
C          4.36620       -0.96737       -0.00003
C          3.16196       -1.62482       -0.00014
C          1.92778       -0.91648       -0.00014
C          1.96388        0.51848       -0.00003
C          3.22832        1.16583        0.00008
C          0.76682        1.30970       -0.00003
O          0.83585        2.61629        0.00018
C         -0.46293        0.61642       -0.00001
C         -0.50548       -0.83849       -0.00015
C          0.68561       -1.61472       -0.00022
O          0.64104       -2.92865       -0.00046
C         -1.75469       -1.48707       -0.00020
C         -2.95604       -0.79766       -0.00009
C         -2.94349        0.62453        0.00011
C         -1.73872        1.29655        0.00012
C         -4.19351       -1.50546       -0.00014
N         -5.19656       -2.08382       -0.00016
H          5.35403        0.96541        0.00018
H          5.29459       -1.52851       -0.00002
H          3.12925       -2.70720       -0.00021
H          3.23444        2.24813        0.00016
H         -1.76243       -2.56893       -0.00030
H         -3.87706        1.17222        0.00024
C         -1.81900        2.71996        0.00034
N         -1.95347        3.87557        0.00100
Li         0.03807        4.11504        0.00038
Li         0.66309       -4.55488       -0.00075
