28
13182761_b3lyp_2_Li.log	Energy: -557645.8824087
C         -3.82263        0.98470        0.00011
C         -3.27204        2.28170       -0.00006
C         -1.90679        2.43880       -0.00016
C         -1.01195        1.33814       -0.00013
C         -1.55221       -0.00623        0.00000
C         -2.99033       -0.12334        0.00012
C         -0.70206       -1.14577       -0.00001
O         -1.17490       -2.36578        0.00026
C          0.70207       -0.90627       -0.00004
C          1.24188        0.42895       -0.00015
C          0.39032        1.56800       -0.00023
O          0.88318        2.78939       -0.00034
C          2.64953        0.58489       -0.00018
C          3.49937       -0.50213       -0.00010
C          2.96336       -1.82774        0.00002
C          1.60735       -2.00534        0.00004
C          4.91286       -0.29535       -0.00012
N          6.05754       -0.12295       -0.00013
H         -4.89735        0.84655        0.00021
H          3.06023        1.58553       -0.00025
H          3.63877       -2.67437        0.00008
H          1.18177       -3.00049        0.00013
H         -3.92914        3.14313       -0.00008
H         -1.47270        3.43078       -0.00026
C         -3.63578       -1.39264        0.00028
N         -4.23278       -2.39218        0.00075
Li        -2.51062       -3.41395        0.00053
Li         1.69100        4.20183       -0.00048
