17
13839673_b3lyp_1_Li.log	Energy: -411962.4033089
C         -0.64627        2.22553        0.00009
C         -1.96180        1.64934       -0.00003
C         -2.21150        0.28191       -0.00018
O         -3.35115       -0.36669       -0.00022
C         -0.99022       -0.48741       -0.00011
N         -0.93480       -1.81057       -0.00018
O          0.40036       -2.17197       -0.00010
C          1.13638       -1.02320        0.00004
C          0.32408        0.09271       -0.00001
C          0.54527        1.49978        0.00004
O          1.77339        1.97612        0.00020
H         -0.56827        3.30792        0.00022
H         -2.81433        2.32003        0.00003
C          2.53750       -1.01870        0.00015
N          3.67761       -0.78650        0.00022
Li        -2.96342       -2.09756       -0.00020
Li         3.36384        1.34159        0.00036
