17
13839673_b3lyp_0_Li.log	Energy: -411962.8538959
C         -0.20783        1.69417       -0.00007
C         -1.26464        0.70377        0.00001
C         -1.07283       -0.70241        0.00014
O         -2.03600       -1.55587       -0.00005
C          0.33290       -1.08011        0.00005
N          0.81394       -2.31085        0.00004
O          2.19587       -2.15070       -0.00001
C          2.51305       -0.84438       -0.00002
C          1.37556       -0.08741       -0.00002
C          1.11623        1.33846       -0.00004
O          2.12737        2.18916        0.00005
H         -0.47736        2.74370       -0.00012
H          3.56502       -0.61255       -0.00005
C         -2.63443        1.01315        0.00000
N         -3.80374        1.00743       -0.00003
Li        -3.73497       -1.03077       -0.00021
Li         3.26664        3.33763        0.00017
