20
141333781_b3lyp_1_Li.log	Energy: -402693.6024802
C          1.21846       -2.15704       -0.09482
C          2.63576       -1.59513        0.15843
O          2.55095       -0.14397       -0.04264
C          1.18680        0.19082       -0.01679
C          0.37059       -0.91077       -0.02049
C         -1.03082       -0.74123       -0.01175
O         -1.88592       -1.72587       -0.02560
C         -1.44619        0.64182        0.01039
C         -0.55863        1.75024        0.00976
C          0.82595        1.56125       -0.00784
O          1.76444        2.48823       -0.01566
H          1.13874       -2.63627       -1.07652
H          0.94493       -2.90347        0.65421
H          2.95829       -1.75752        1.18992
H         -0.95151        2.75986        0.02566
H          3.39542       -1.97333       -0.52504
C         -2.84847        0.74885        0.02710
N         -4.00355        0.57405        0.03665
Li        -3.62942       -1.43049       -0.00556
Li         3.29024        1.63460       -0.05359
