24
14289169_b3lyp_2_Li.log	Energy: -380910.2913436
C         -3.42032       -1.25119        0.90007
C         -2.66464       -1.18726       -0.43944
C         -1.24561       -0.68873       -0.29486
C         -0.19478       -1.59471       -0.27010
C          1.15044       -1.19179       -0.11632
O          2.15465       -2.02485       -0.08885
C          1.35282        0.22669        0.00852
C          0.29861        1.17329       -0.01785
C         -1.01397        0.71622       -0.16816
O         -2.03052        1.57495       -0.20069
C          0.56532        2.64849        0.11090
H         -2.93433       -1.94959        1.58673
H         -4.45343       -1.58432        0.75490
H         -3.43768       -0.27015        1.38141
H         -2.65117       -2.18299       -0.89298
H          0.04626        3.06673        0.98070
H          1.63078        2.86375        0.21838
H          0.19734        3.19173       -0.76682
H         -3.20724       -0.52805       -1.12495
H         -0.38725       -2.65787       -0.37456
C          2.71634        0.54220        0.15347
N          3.88054        0.54462        0.25672
Li         3.81896       -1.49426        0.09759
Li        -3.22741        2.65367       -0.24451
