20
15269886_b3lyp_0_Li.log	Energy: -402714.9385144
C         -0.46778        2.65126       -0.00006
C         -0.23800        1.16752       -0.00013
C         -1.28127        0.24053        0.00000
C         -1.12506       -1.20488        0.00005
O         -2.17553       -1.98282        0.00012
C          0.19518       -1.64330       -0.00006
C          1.29188       -0.74445       -0.00011
C          1.10709        0.68961       -0.00008
O          2.08631        1.53770       -0.00001
C          2.59769       -1.34469       -0.00010
O          3.70800       -0.77349        0.00008
H         -1.53040        2.90298       -0.00459
H          0.00577        3.11221       -0.87197
H         -0.00236        3.11113        0.87688
H          0.37909       -2.71274       -0.00013
H          2.59999       -2.44715       -0.00024
C         -2.65431        0.60066        0.00000
N         -3.81734        0.64316        0.00002
Li        -3.83377       -1.43722        0.00005
Li         3.75597        1.03948        0.00042
