22
15321799_b3lyp_1_Li.log	Energy: -380141.5034546
C         -0.62628       -2.32884        0.03926
C          0.87880       -2.03242       -0.16925
C          0.95814       -0.52699       -0.08336
C         -0.30743        0.05214       -0.21890
C         -1.33957       -1.04256       -0.47347
C         -0.54973        1.43834       -0.17433
O         -1.76600        1.95135       -0.25968
C          0.61359        2.22547       -0.00699
C          1.88089        1.66011        0.11300
C          2.10236        0.26618        0.07921
O          3.32046       -0.26233        0.19368
H         -0.83290       -2.44712        1.10588
H         -0.97607       -3.22654       -0.47505
H          1.21652       -2.39318       -1.15089
H         -1.55128       -1.12936       -1.55030
H          0.49221        3.30323        0.03556
H          2.74479        2.30593        0.24443
H          1.49845       -2.53506        0.57890
C         -2.62372       -0.76382        0.15764
N         -3.64008       -0.47249        0.63252
Li        -3.32621        1.52460        0.25414
Li         4.83645       -0.78068        0.32418
