17
17981306_b3lyp_1_Li.log	Energy: -614666.8533707
C         -1.54478        2.08935        0.08983
C         -0.20290        2.33511       -0.06402
C          0.78922        1.31079       -0.21962
O          2.05423        1.61198       -0.31794
C          0.28774       -0.00011       -0.22514
C         -1.09851       -0.27898       -0.03955
C         -2.06961        0.76431        0.11668
O         -3.33024        0.50115        0.27323
S          1.36315       -1.39459       -0.59047
C          2.69356       -1.05132        0.39980
N          3.65524       -0.76408        0.99251
H         -2.24908        2.90588        0.20339
H          0.16621        3.35554       -0.07248
C         -1.69257       -1.55066        0.00970
N         -2.42114       -2.46006        0.08556
Li         3.59867        1.14549        0.25354
Li        -3.97570       -1.14382        0.32037
