17
17981306_b3lyp_0_Li.log	Energy: -614655.2093916
C         -2.18590        0.42246        0.08278
C         -1.04781        1.22761       -0.06352
C          0.26374        0.68411       -0.20935
O          1.31916        1.42803       -0.32078
C          0.30081       -0.73655       -0.18574
C         -0.82423       -1.54221       -0.01963
C         -2.10898       -0.97860        0.10777
O         -3.18361       -1.73683        0.25175
S          1.85402       -1.59679       -0.52656
C          2.95819       -0.69991        0.39108
N          3.75057       -0.04844        0.94449
H         -3.15638        0.89337        0.18906
H         -0.72802       -2.62195        0.01072
C         -1.18447        2.64793       -0.05122
N         -1.31514        3.79795       -0.03105
Li         2.90694        1.69270        0.25385
Li        -4.55380       -2.57540        0.43629
