15
21099940_b3lyp_0_Li.log	Energy: -377204.1592513
C          0.03699        1.55347        0.00010
C          1.10626        0.60837       -0.00003
C          0.97056       -0.83021       -0.00006
O          1.97889       -1.63047       -0.00014
C         -0.41104       -1.16479        0.00004
C         -1.44083       -0.23808        0.00012
C         -1.30949        1.17563        0.00022
O         -2.31709        2.01582        0.00008
C         -1.76107       -1.64185        0.00006
O         -2.57049       -2.53386       -0.00001
H          0.28064        2.61086        0.00022
C          2.46982        0.97571        0.00017
N          3.63587        1.00318       -0.00007
Li         3.65481       -1.05262       -0.00022
Li        -3.79796        2.69447       -0.00080
