20
22489347_b3lyp_1_Li.log	Energy: -379377.1509921
C          0.82054       -2.07007       -0.00006
C         -0.67159       -2.28761       -0.00000
C         -1.29442       -1.07987        0.00004
C         -0.32654        0.02001        0.00002
C          0.95606       -0.56530       -0.00004
C          2.10919        0.21973       -0.00007
O          3.33182       -0.30572       -0.00014
C          1.89144        1.61966       -0.00006
C          0.62292        2.19280        0.00000
C         -0.56001        1.41414        0.00005
O         -1.76889        1.93454        0.00009
H          1.29293       -2.53794       -0.87612
H          1.29299       -2.53797        0.87596
H          2.76690        2.26327       -0.00010
H          0.51514        3.27265        0.00001
H         -1.15759       -3.25351        0.00000
C         -2.69279       -0.84531        0.00010
N         -3.81681       -0.55224        0.00015
Li         4.85802       -0.81743       -0.00023
Li        -3.39969        1.45725        0.00013
