23
265508_b3lyp_3_Li.log	Energy: -438061.9400846
C         -3.85837       -1.96167        0.00147
C         -2.69347       -1.00735        0.00033
C         -1.38169       -1.44001       -0.00087
C         -0.32557       -0.50713       -0.00126
C         -0.64973        0.87654       -0.00065
C         -2.02724        1.19638        0.00012
N         -3.01016        0.31605        0.00069
C          0.37173        1.90729       -0.00033
O          0.02397        3.18235        0.00010
C          1.68606        1.49276       -0.00014
C          2.01729        0.10294       -0.00061
C          1.05437       -0.94065       -0.00160
O          1.38691       -2.19614       -0.00242
H         -4.48689       -1.79483        0.88135
H         -3.52596       -3.00152        0.00138
H         -4.48841       -1.79521       -0.87740
H         -1.13767       -2.49510       -0.00129
H         -2.31524        2.24321        0.00042
H          2.47788        2.23244        0.00039
C          3.32767       -0.40833        0.00082
N          4.29351       -1.06568        0.00232
Li        -0.38757        4.74593        0.00045
Li         3.08074       -2.71122        0.00257
