25
Li_12078641_b3lyp_prop_0.log	Energy: -441169.7722006
C         -0.80934       -2.55048        0.00004
C         -0.45628       -1.09752        0.00001
C         -1.35954       -0.06857        0.00002
O         -0.69359        1.17125       -0.00000
C          0.67198        0.86714       -0.00002
C          0.86600       -0.51267       -0.00002
C          2.19973       -1.00712       -0.00004
O          2.47568       -2.30644       -0.00004
C          3.19776       -0.01778       -0.00007
C          2.93752        1.36624       -0.00008
C          1.62952        1.88877       -0.00005
O          1.25686        3.15882       -0.00003
H         -1.89209       -2.69078        0.00009
H         -0.39293       -3.04877        0.88029
H         -0.39301       -3.04878       -0.88024
H          4.23034       -0.35462       -0.00010
H          3.76619        2.06693       -0.00010
C         -2.76326       -0.03725        0.00007
C         -3.97329       -0.01024        0.00008
C         -5.42903        0.00993       -0.00002
H         -5.83615       -0.48954       -0.88497
H         -5.83628       -0.48860        0.88539
H         -5.80089        1.03891       -0.00060
Li         3.02085       -3.82280        0.00014
Li        -0.49670        3.10399        0.00029
