24
Li_141333781_b3lyp_prop_1.log	Energy: -417246.4525136
C          0.48746       -1.37450        0.26322
C          1.42076       -0.22008        0.73056
O          0.77471        1.01647        0.27633
C         -0.59751        0.69742        0.09963
C         -0.83269       -0.66081        0.10817
C         -2.14143       -1.13566       -0.08175
O         -2.42688       -2.43658       -0.09794
C         -3.12511       -0.13716       -0.25947
C         -2.83687        1.23274       -0.26726
C         -1.52524        1.72887       -0.08956
O         -1.13798        2.99630       -0.09273
H          0.83947       -1.80023       -0.68348
H          1.41332       -0.18064        1.82641
H         -4.15157       -0.46368       -0.39892
H         -3.63606        1.95286       -0.41110
H          0.47617       -2.17614        1.00568
C          2.79297       -0.27190        0.25089
C          3.93597       -0.34049       -0.12315
C          5.31472       -0.42757       -0.58704
H          6.02004       -0.20057        0.21747
H          5.53978       -1.43088       -0.95995
H          5.49612        0.27831       -1.40272
Li        -2.94575       -3.95725       -0.16432
Li         0.60098        2.91268        0.11632
