24
Li_141265078_b3lyp_prop_0.log	Energy: -393923.2221868
C          2.87665        2.59067        0.93352
C          2.03678        2.06317        0.23926
C          1.03163        1.44311       -0.62912
C          0.67376        0.00752       -0.28532
C         -0.67963       -0.37408       -0.06426
C         -1.04444       -1.73385        0.18511
O         -2.29625       -2.07763        0.39080
C          0.01272       -2.67447        0.19148
C          1.32361       -2.29609       -0.02466
C          1.70162       -0.94894       -0.26032
O          2.96955       -0.60937       -0.44340
H          3.51059        3.14002        1.58884
H          1.40980        1.49749       -1.65973
H          0.13935        2.07537       -0.59067
H         -0.24311       -3.71292        0.37310
H          2.11638       -3.03757       -0.01635
C         -1.74211        0.57163       -0.08462
C         -2.70405        1.32264       -0.08594
C         -3.73668        2.36240       -0.13222
H         -3.97738        2.64671       -1.16192
H         -4.66988        2.04823        0.34677
H         -3.40015        3.26195        0.39266
Li        -3.47855       -0.83691        0.33223
Li         3.88813        0.69503        0.08464
