26
Li_141345307_b3lyp_prop_0.log	Energy: -394705.6644647
O          2.14626        2.00744        0.01175
O         -1.12792       -2.43433        0.04025
C         -0.03595        1.08888        0.01188
C          1.91105       -0.38403        0.05562
C          1.36139        0.93359        0.03078
C         -0.86828       -0.05536        0.00996
C          1.06567       -1.49710        0.06073
C         -0.33197       -1.38643        0.03414
C         -0.60444        2.48304       -0.01465
C          3.37061       -0.53072        0.08978
C          4.08717       -1.63157       -0.17595
H          1.47860       -2.49811        0.10935
H         -0.25178        3.06553        0.84413
H         -1.69536        2.47740        0.00218
H         -0.28117        3.02259       -0.91296
H          3.90599        0.37590        0.35608
H          5.16870       -1.62428       -0.09846
H          3.62912       -2.56637       -0.48075
C         -2.28846        0.05435       -0.00847
C         -3.50793        0.06847       -0.02483
C         -4.95752        0.28583       -0.04850
H         -5.46350       -0.18260        0.80228
H         -5.17205        1.35754        0.00109
H         -5.41980       -0.09407       -0.96568
Li         3.06556        3.32584       -0.07741
Li        -2.81673       -2.15653        0.01199
