33
Li_12635763_b3lyp_prop_4.log	Energy: -562109.1136593
C          4.93524       -2.28367        0.00064
C          4.15488       -1.34961        0.00036
C          3.42242       -0.12019       -0.00012
C          1.98118       -0.00482       -0.00012
C          1.42559        1.33686        0.00001
C          2.30588        2.45037       -0.00017
C          3.66991        2.30309       -0.00040
C          4.23049        1.00967       -0.00031
C          0.02340        1.55886        0.00026
O         -0.47261        2.78394        0.00023
C         -0.83047        0.42414        0.00013
C         -2.24227        0.57372        0.00024
C         -3.09911       -0.50979       -0.00002
C         -2.54090       -1.82963       -0.00024
C         -1.18453       -2.00588       -0.00034
C         -0.28192       -0.90462       -0.00019
C          1.12328       -1.13702       -0.00034
O          1.58978       -2.36230       -0.00024
H          5.70886       -3.01452        0.00142
H         -3.21086       -2.68150       -0.00030
H         -0.75703       -3.00055       -0.00051
H          1.85990        3.43695       -0.00014
H          4.32210        3.16910       -0.00060
H          5.30720        0.88736       -0.00032
H         -2.65385        1.57457        0.00051
C         -4.51585       -0.33079        0.00006
C         -5.71752       -0.20091        0.00013
C         -7.16670       -0.04615        0.00006
H         -7.51721        0.43534        0.91899
H         -7.50291        0.56510       -0.84387
H         -7.66549       -1.01709       -0.07548
Li        -1.30401        4.17185        0.00046
Li         2.97532       -3.28175        0.00036
