32
Li_12344381_b3lyp_prop_0.log	Energy: -572222.3960399
C         -3.07870       -0.49104        0.00009
C         -2.52771       -1.81321        0.00006
C         -1.17234       -1.99724        0.00009
C         -0.26416       -0.90123        0.00010
C         -0.80517        0.43135        0.00014
C         -2.21592        0.58790        0.00018
C          0.05169        1.56676        0.00013
O         -0.43851        2.79229        0.00022
C          1.45207        1.33742       -0.00000
C          2.34872        2.43663       -0.00016
C          3.71440        2.27914       -0.00028
C          4.26530        0.98174       -0.00024
C          3.43175       -0.12586       -0.00009
C          1.99341       -0.00865        0.00000
C          1.14096       -1.14335        0.00008
O          1.61145       -2.36665        0.00011
C          4.07712       -1.39457       -0.00003
N          4.67411       -2.39478       -0.00002
H         -3.20221       -2.66140        0.00003
H         -0.75010       -2.99411        0.00008
H         -2.62284        1.59058        0.00023
H          1.91501        3.42897       -0.00019
H          4.37159        3.14071       -0.00042
H          5.34001        0.84300       -0.00031
C         -4.49436       -0.30445       -0.00006
C         -5.69518       -0.16823       -0.00019
C         -7.14350       -0.00650       -0.00028
H         -7.49030        0.48415        0.91505
H         -7.47698        0.59952       -0.84891
H         -7.64675       -0.97567       -0.06743
Li        -1.28476        4.17499        0.00064
Li         2.94812       -3.40739        0.00011
