24
Li_141265078_b3lyp_prop_1.log	Energy: -393924.5138548
C          4.69631       -0.23293        1.09328
C          3.87282        0.26997        0.36248
C          2.90437        0.88522       -0.54948
C          1.44718        0.51432       -0.31907
C          0.50043        1.52015       -0.15976
C         -0.87701        1.24272       -0.02839
O         -1.78160        2.18715        0.12091
C         -1.24038       -0.13940       -0.07366
C         -0.27666       -1.15596       -0.23153
C          1.08603       -0.86412       -0.34814
O          2.00854       -1.80766       -0.47565
H          5.44366       -0.54254        1.78519
H          3.19853        0.61299       -1.57232
H          3.02401        1.97009       -0.46632
H         -0.58457       -2.19520       -0.26077
H          0.80107        2.56346       -0.14080
C         -2.62444       -0.45393        0.04838
C         -3.82288       -0.64673        0.15833
C         -5.22019       -1.07260        0.27985
H         -5.28403       -2.15985        0.17820
H         -5.64983       -0.81197        1.25269
H         -5.85705       -0.63789       -0.49754
Li        -3.41464        1.65824        0.24151
Li         3.55438       -2.00330        0.14712
