22
Li_15699186_b3lyp_prop_1.log	Energy: -416490.6235887
C          0.16965        1.49581       -0.00015
C          0.94997        0.30050       -0.00070
C          0.37752       -1.00707       -0.00035
O          1.09505       -2.10107        0.00043
C         -1.03338       -0.97857       -0.00053
C         -1.81518        0.18045       -0.00040
C         -1.21924        1.47601        0.00010
O         -1.96619        2.57384        0.00074
C         -3.17988       -0.27841       -0.00003
C         -3.12378       -1.63412       -0.00004
O         -1.83814       -2.09237       -0.00032
H         -4.07466        0.32344       -0.00016
H         -3.88592       -2.39649        0.00038
H          0.67785        2.45394        0.00015
C          2.36999        0.36561       -0.00177
C          3.58996        0.34253       -0.00342
C          5.04559        0.51665        0.00278
H          5.31005        1.47286       -0.45895
H          5.45507        0.51667        1.01864
H          5.56422       -0.26331       -0.56452
Li         2.80220       -1.85576        0.00633
Li        -2.85542        3.91356        0.00191
