20
Li_12754795_b3lyp_prop_1.log	Energy: -379355.3313313
C          0.04789       -1.57974        0.00003
C          0.71885       -0.35535        0.00002
C         -0.02548        0.87079        0.00004
O          0.52363        2.04604        0.00006
C         -1.45359        0.71642       -0.00001
C         -2.10832       -0.53270        0.00001
C         -1.36254       -1.70992        0.00006
O         -1.93224       -2.90838       -0.00002
C         -2.10676        1.96392       -0.00007
N         -2.40972        3.09148       -0.00002
H         -3.19107       -0.58239       -0.00003
H          0.63550       -2.49172        0.00001
C          2.14321       -0.30793       -0.00001
C          3.35046       -0.27500       -0.00003
C          4.80597       -0.21540       -0.00002
H          5.22663       -0.70893        0.88235
H          5.22648       -0.70510       -0.88460
H          5.15419        0.82210        0.00219
Li        -0.40599        3.54011        0.00001
Li        -2.58499       -4.38217       -0.00005
