23
Li_141161619_b3lyp_prop_3.log	Energy: -440434.5660450
C          0.84089        0.77933       -0.00006
C          0.70630       -0.64337        0.00000
C          1.80337       -1.52711        0.00009
C          3.10402       -0.87404        0.00015
C          3.22765        0.48482        0.00006
C          2.09103        1.38687        0.00006
C         -0.49232        1.34252       -0.00018
C         -1.43311        0.34060       -0.00005
C         -0.70313       -0.95953       -0.00025
O          1.70653       -2.81262        0.00053
O          2.29246        2.68287       -0.00034
O         -1.22805       -2.10563       -0.00040
H          3.97947       -1.51479        0.00021
H          4.21285        0.94221        0.00005
H         -0.71727        2.40054       -0.00019
C         -2.83969        0.46055        0.00003
C         -4.04696        0.53005        0.00008
C         -5.50132        0.60562        0.00011
H         -5.87504        1.13298        0.88409
H         -5.87505        1.13357       -0.88353
H         -5.94297       -0.39559       -0.00022
Li         0.02796       -3.42054       -0.00014
Li         2.47543        4.29598        0.00052
