26
Li_101355_b3lyp_prop_1.log	Energy: -418016.1698106
O         -0.02146       -2.06059       -0.24822
O          2.63964       -1.53526       -0.29340
O         -0.89784        2.69313        0.20012
C          2.25313        0.83068        0.00373
C          1.80096       -0.52011       -0.13333
C          0.41554       -0.71090       -0.10778
C          1.34896        1.87345        0.12962
C         -0.52437        0.34491       -0.01869
C         -0.05473        1.68981        0.11336
C          3.73808        1.07003        0.00332
C         -0.63656       -2.60838        0.93468
H          4.18488        0.73758       -0.93926
H          4.22606        0.48604        0.78969
H          3.96823        2.12746        0.15010
H         -0.89917       -3.64412        0.70764
H         -1.54326       -2.05658        1.18539
H          0.05995       -2.56912        1.77797
H          1.70760        2.89276        0.23233
C         -1.92464        0.14414       -0.10440
C         -3.14065        0.06314       -0.17195
C         -4.57254       -0.21478       -0.31809
H         -4.91569       -0.07108       -1.34824
H         -4.78299       -1.25331       -0.04479
H         -5.19114        0.41387        0.33089
Li         1.63954       -2.85862       -0.79497
Li        -2.57158        2.32072        0.09745
