23
Li_141161619_b3lyp_prop_1.log	Energy: -440440.3636552
C          0.74294        1.04722        0.00004
C          1.51432       -0.14945       -0.00002
C          0.96020       -1.44269        0.00003
C         -0.48696       -1.47556        0.00003
C         -1.24050       -0.32075        0.00006
C         -0.64682        1.02840        0.00009
C          1.67617        2.16480        0.00005
C          2.95913        1.70097        0.00003
C          2.92267        0.23561       -0.00003
H          1.36938        3.20223        0.00008
O          1.64489       -2.53909        0.00012
O         -1.43017        2.06893        0.00015
O          3.91400       -0.54760       -0.00014
H          3.87126        2.28011        0.00006
H         -0.96546       -2.44852        0.00002
C         -2.66947       -0.38836        0.00003
C         -3.88526       -0.39799       -0.00005
C         -5.33605       -0.59824        0.00001
H         -5.56000       -1.66850       -0.00071
H         -5.80979       -0.16548        0.88640
H         -5.81006       -0.16425       -0.88565
Li         3.40928       -2.29769       -0.00026
Li        -3.13840        1.85859       -0.00072
