32
Li_13182761_b3lyp_prop_0.log	Energy: -572208.4430280
C          3.27983        0.36034       -0.00013
C          2.87204        1.73375       -0.00015
C          1.54424        2.05851       -0.00009
C          0.52149        1.06635       -0.00004
C          0.92080       -0.31895       -0.00003
C          2.30710       -0.62120       -0.00004
C         -0.04573       -1.36643       -0.00000
O          0.32599       -2.63259        0.00003
C         -1.41305       -1.00337       -0.00002
C         -1.81266        0.38624        0.00002
C         -0.84918        1.43295        0.00003
O         -1.21996        2.69751        0.00009
C         -3.19505        0.68862        0.00003
C         -4.15860       -0.30015       -0.00000
C         -3.76547       -1.67699       -0.00007
C         -2.43715       -1.99688       -0.00008
C         -5.54138        0.05250        0.00003
N         -6.66410        0.33721        0.00006
H          3.63215        2.50615       -0.00017
H          1.24055        3.09798       -0.00007
H          2.60323       -1.66175        0.00001
H         -3.49382        1.72839        0.00008
H         -4.52720       -2.44712       -0.00013
H         -2.13145       -3.03550       -0.00013
C          4.66812        0.02831       -0.00019
C          5.84937       -0.22734       -0.00013
C          7.27362       -0.53593        0.00030
H          7.87317        0.37606       -0.07697
H          7.57007       -1.05045        0.92019
H          7.54183       -1.18129       -0.84241
Li         0.86037       -4.16021        0.00026
Li        -1.73306        4.23541        0.00028
