26
Li_101355_b3lyp_prop_0.log	Energy: -418020.8049281
O         -3.22584        0.17987        0.00006
O         -2.03187       -2.16999       -0.00001
O          1.05939        2.42479        0.00008
C          0.16210       -1.16583        0.00003
C         -1.24038       -1.10414        0.00005
C         -1.80777        0.20215        0.00007
C          0.92670        0.03202        0.00005
C         -1.08217        1.37799        0.00007
C          0.33050        1.32976        0.00006
C          0.83293       -2.51384        0.00002
C         -3.91624        1.42774       -0.00022
H         -1.54514        2.35566        0.00011
H          1.47288       -2.64388       -0.88038
H          0.07542       -3.29693       -0.00123
H          1.47092       -2.64490        0.88168
H         -4.98198        1.19589       -0.00041
H         -3.66940        2.00828       -0.89301
H         -3.66978        2.00848        0.89257
C          2.34924       -0.01602        0.00006
C          3.56858        0.01305        0.00000
C          5.02476       -0.15539       -0.00017
H          5.49575        0.28418        0.88540
H          5.27072       -1.22142       -0.00041
H          5.49559        0.28458       -0.88562
Li        -3.67182       -1.65604       -0.00002
Li         2.76591        2.19862        0.00006
