25
Li_24973987_b3lyp_prop_2.log	Energy: -643838.4782211
C          4.19874       -1.24432       -0.00010
C          2.86962       -0.53160       -0.00006
C          2.81638        0.87463       -0.00006
C          1.61951        1.60474       -0.00002
O          1.56641        2.93015        0.00001
C          0.45018        0.82715       -0.00001
C          0.45554       -0.58491        0.00002
C          1.68714       -1.29468       -0.00001
O          1.71085       -2.62144        0.00005
C         -0.87019       -1.12099        0.00008
C         -1.86106       -0.17558        0.00007
S         -1.18584        1.46975        0.00002
H          4.30836       -1.89063       -0.87932
H          4.30899       -1.88962        0.87979
H          5.02723       -0.53195       -0.00078
H          3.74468        1.43930       -0.00010
H         -1.08493       -2.18103        0.00013
C         -3.25716       -0.37161        0.00002
C         -4.45775       -0.52015        0.00004
C         -5.90222       -0.70573        0.00001
H         -6.41895        0.25710       -0.06071
H         -6.22785       -1.31005       -0.85311
H         -6.24239       -1.20682        0.91237
Li         1.15617        4.49106        0.00017
Li         1.79311       -4.22900        0.00021
