27
Li_223813_b3lyp_prop_1.log	Energy: -418615.5201065
C         -0.93471        0.74902        0.00235
C         -1.72007       -0.54388        0.00084
C         -1.11922       -1.74412        0.00048
C          0.36363       -1.94046        0.00149
C          1.17904       -0.67015        0.00057
C          0.56691        0.58978        0.00097
C          1.34587        1.77224        0.00011
O          0.76084        2.97031        0.00027
C          2.74211        1.64002       -0.00124
C          3.34939        0.38794       -0.00162
C          2.58894       -0.79055       -0.00073
O          3.16951       -1.99205       -0.00068
H         -1.24254        1.34682        0.87180
H         -1.73679       -2.63854       -0.00053
H          0.64437       -2.55787        0.86902
H          0.64540       -2.55966       -0.86435
H          3.34452        2.54363       -0.00193
H          4.43212        0.30232       -0.00258
H         -1.24369        1.34970       -0.86464
C         -3.14481       -0.42549       -0.00005
C         -4.34462       -0.27798       -0.00077
C         -5.79467       -0.12911       -0.00184
H         -6.24305       -0.59685        0.88075
H         -6.08584        0.92591       -0.00125
H         -6.24160       -0.59547       -0.88589
Li         0.01725        4.39260        0.00042
Li         3.92192       -3.40916       -0.00059
