29
Li_23162507_b3lyp_prop_1.log	Energy: -419389.4067120
C          1.59015        3.29121        0.09994
C          1.42280        1.79454        0.03648
C          2.49787        0.93472        0.27128
C          2.39548       -0.47050        0.21541
O          3.44905       -1.26414        0.42144
C          1.12570       -0.98331       -0.07841
C          0.04022       -0.13163       -0.30707
C          0.13938        1.27030       -0.27294
O         -0.89943        2.06262       -0.51136
C         -1.18727       -0.95024       -0.70264
C         -0.80980       -2.38926       -0.22504
C          0.73457       -2.42986       -0.25568
H          0.94972        3.73103        0.87288
H          1.29358        3.76187       -0.84330
H          2.62677        3.56392        0.31502
H         -1.28343       -0.94773       -1.80022
H         -1.15854       -2.51451        0.80359
H         -1.28541       -3.16060       -0.83599
H          1.14168       -3.08338        0.52233
H          1.09936       -2.82204       -1.21596
H          3.47210        1.35811        0.50444
C         -2.48531       -0.52487       -0.16470
C         -3.57725       -0.23080        0.27315
C         -4.90737       -0.03000        0.85637
H         -5.29857       -0.97902        1.23430
H         -4.88235        0.67006        1.69685
H         -5.62255        0.34899        0.12028
Li         4.76689       -2.14671        0.65788
Li        -2.54166        1.74128       -0.36847
