27
Li_223813_b3lyp_prop_0.log	Energy: -418616.4891405
C          1.09083       -0.60699       -0.85870
C          0.86814       -2.10557       -0.89070
C         -0.25942       -2.68364       -0.48748
C         -1.44371       -1.93548        0.03886
C         -1.31314       -0.43269       -0.00877
C         -0.12611        0.19957       -0.40930
C         -0.02160        1.61444       -0.47545
O          1.11141        2.20367       -0.83675
C         -1.16726        2.35654       -0.13454
C         -2.34184        1.73262        0.26789
C         -2.44528        0.33482        0.34618
O         -3.57818       -0.25759        0.73353
H          1.33983       -0.28034       -1.88124
H          1.69301       -2.70476       -1.26558
H         -0.34450       -3.76672       -0.54526
H         -2.34047       -2.23866       -0.51983
H         -1.64944       -2.26227        1.06994
H         -1.10581        3.43871       -0.18930
H         -3.21298        2.32550        0.53230
C          2.30279       -0.33901       -0.05106
C          3.31449       -0.16201        0.59310
C          4.50250       -0.10038        1.44951
H          4.67446       -1.07163        1.92226
H          5.40334        0.15279        0.88271
H          4.38664        0.63712        2.24928
Li         2.70134        1.84263       -0.44024
Li        -4.99210       -0.85318        1.20469
