23
Li_212470_b3lyp_prop_0.log	Energy: -438039.6996373
C          1.22155        0.34212       -0.00001
C          0.53573        1.59034        0.00000
C         -0.85494        1.69244        0.00002
O         -1.52428        2.82107        0.00002
C         -1.55912        0.43590        0.00000
N         -2.93419        0.47178       -0.00001
C         -3.58076       -0.68122       -0.00001
N         -3.03818       -1.91366        0.00001
C         -1.70998       -1.96258        0.00003
C         -0.89019       -0.82426        0.00001
C          0.54586       -0.90205       -0.00000
O          1.17409       -2.04828       -0.00002
H          1.11192        2.50864       -0.00000
H         -4.66683       -0.63815       -0.00005
H         -1.24633       -2.94428        0.00003
C          2.64593        0.29946       -0.00002
C          3.85953        0.19418        0.00000
C          5.32338        0.26249        0.00001
H          5.76013       -0.20917        0.88601
H          5.76015       -0.20930       -0.88592
H          5.64077        1.30908       -0.00007
Li        -3.23069        2.42259       -0.00005
Li         2.90610       -1.95152       -0.00001
