27
Li_59350869_b3lyp_prop_2.log	Energy: -418628.4716773
C         -1.83813       -3.12431       -0.00007
C         -2.06425       -1.64266        0.00000
C         -3.25956       -1.01387       -0.00003
C         -3.08490        0.48394        0.00003
C         -1.58704        0.64449        0.00008
C         -0.99422       -0.62664        0.00005
C          0.41203       -0.78953        0.00010
O          1.01612       -1.95873        0.00041
C          1.16193        0.43186        0.00003
C          0.54421        1.70384        0.00007
C         -0.84756        1.84231        0.00015
O         -1.44553        3.03173       -0.00002
H         -1.25602       -3.43140        0.87297
H         -1.25604       -3.43130       -0.87316
H         -2.79047       -3.66174       -0.00010
H         -3.54380        0.96108       -0.87780
H          1.16025        2.59695        0.00005
H         -4.22524       -1.50533       -0.00009
H         -3.54388        0.96103        0.87783
C          2.58057        0.31816       -0.00013
C          3.78723        0.14011       -0.00043
C          5.25329        0.13103       -0.00029
H          5.65041        0.60950        0.90078
H          5.66741       -0.88205       -0.03593
H          5.64861        0.66962       -0.86752
Li         2.73799       -1.92475        0.00100
Li        -2.22389        4.43715       -0.00017
