53
Li_6699_b3lyp_prop_2.log	Energy: -898783.1909427
O         -3.48205       -0.00068       -0.72398
O          4.17826        0.43606       -0.92616
O         -1.46309       -1.93005       -0.81124
O          2.16773        2.25935       -0.45754
C         -1.05626        0.43085       -0.51273
C          1.74720       -0.08355       -0.86925
C         -0.06119        1.47528       -0.36729
C          0.75633       -1.13654       -1.00177
C         -0.63821       -0.91068       -0.78254
C          1.33344        1.24892       -0.55562
C         -2.42196        0.85227       -0.37767
C          3.10334       -0.49632       -1.07450
C         -0.47232        2.79659       -0.03108
C          1.17061       -2.44987       -1.35815
C         -2.80141        2.14337       -0.05493
C          3.47313       -1.76393       -1.43247
C         -1.78273        3.12829        0.14142
C          2.48409       -2.76481       -1.58397
C         -3.91448       -0.95903        0.11151
C          5.07985        0.24287        0.11643
C         -3.48564       -1.10513        1.43941
C          4.70287       -0.31019        1.33964
C         -4.80685       -1.89873       -0.43466
C          6.37705        0.71255       -0.08981
C         -3.90752       -2.20577        2.18473
C          5.64591       -0.38803        2.36091
C         -5.21996       -2.99426        0.32355
C          7.30774        0.63371        0.94620
C         -4.76053       -3.16791        1.63407
C          6.94643        0.08257        2.17307
H          4.52265       -1.98897       -1.58280
H         -2.08008        4.13654        0.40229
H          2.77499       -3.76730       -1.87637
H         -2.79534       -0.38342        1.85645
H          3.69062       -0.66543        1.48147
H         -5.13055       -1.76410       -1.45948
H          6.65435        1.10472       -1.06260
H         -3.55332       -2.31840        3.20329
H          5.35684       -0.81372        3.31510
H         -5.89748       -3.71874       -0.11471
H          8.31804        0.99179        0.78432
H         -5.07562       -4.02333        2.21878
H          7.67094        0.01687        2.97601
H          0.30950        3.53562        0.08207
H          0.39518       -3.19674       -1.46249
C         -4.17481        2.50607        0.05736
C         -5.32602        2.85419        0.17127
C         -6.71713        3.26837        0.29559
H         -6.98142        4.00543       -0.46958
H         -7.39338        2.41549        0.18310
H         -6.91175        3.72141        1.27300
Li        -2.65951       -2.89782       -0.11846
Li         3.80393        2.28046       -0.88448
