33
Li_616789_b3lyp_4.log	Energy: -549093.5339443
C         -4.28138       -1.20122        0.92844
C         -3.83325       -0.54812       -0.40021
C         -2.73951        0.49611       -0.23567
C         -1.32530        0.19366       -0.13221
C         -0.41488        1.31943       -0.03586
C         -0.92978        2.64452       -0.00283
C         -2.27171        2.89114       -0.07873
C         -3.16886        1.80507       -0.20775
C          1.00422        1.16540        0.02578
O          1.78902        2.21527        0.11035
C          1.52074       -0.14941       -0.01203
C          2.93691       -0.43239        0.02897
C          3.42884       -1.72833        0.00005
C          2.54061       -2.81841       -0.07111
C          1.18407       -2.58805       -0.11236
C          0.63132       -1.28385       -0.08809
C         -0.78643       -1.13182       -0.13366
O         -1.53811       -2.21319       -0.16294
H         -3.43194       -1.58213        1.51012
H         -5.02692       -1.99840        0.77430
H         -4.76140       -0.45965        1.56917
H         -4.70971       -0.05839       -0.83416
H          4.49938       -1.89458        0.03184
H          2.93126       -3.82883       -0.09429
H          0.48725       -3.41459       -0.16850
H         -3.52187       -1.28848       -1.14669
H         -0.21133        3.44937        0.07837
H         -2.65286        3.90632       -0.05725
H         -4.23134        2.01100       -0.30212
C          3.90463        0.60710        0.09950
N          4.75100        1.40611        0.15633
Li         3.35968        2.84210        0.18253
Li        -3.03845       -2.89078       -0.00514
