25
Li_78494_b3lyp_prop_2.log	Energy: -370800.8940185
C          2.34943       -2.78362        0.83510
C          2.19483       -1.97718       -0.46616
C          1.40054       -0.70437       -0.28887
C          2.02831        0.53076       -0.18969
C          1.33366        1.75145       -0.00733
O          1.99252        2.90557        0.08360
C         -0.05642        1.68391        0.06766
C         -0.72394        0.44266       -0.03448
C         -0.01782       -0.78472       -0.21157
O         -0.66045       -1.93252       -0.30473
H          2.87272       -2.19907        1.59804
H          2.91869       -3.70353        0.66291
H          1.36823       -3.05786        1.22830
H          3.18603       -1.73056       -0.86237
H          1.69310       -2.60638       -1.20788
H          3.11270        0.58074       -0.25686
H         -0.62750        2.59611        0.20301
C         -2.14391        0.37190        0.03204
C         -3.35469        0.23288        0.07792
C         -4.81760        0.27022        0.16618
H         -5.15651        0.35436        1.20404
H         -5.21120        1.13089       -0.38342
H         -5.28777       -0.62163       -0.26105
Li         2.81669        4.27830        0.19901
Li        -2.37651       -1.85524       -0.21251
