20
101355_b3lyp_0.log	Energy: -393893.1403122
O          2.69501       -0.89363       -0.13731
O          1.63103        1.73673       -0.23797
O         -1.71824       -2.38701       -0.02652
C         -0.60333        1.02561       -0.01008
C          0.87587        0.79106       -0.10678
C          1.38565       -0.62233       -0.06578
C         -1.44232       -0.03606        0.00972
C          0.51032       -1.65226       -0.06477
C         -0.93475       -1.45385       -0.03400
C         -1.03506        2.45700        0.02673
C          3.72215        0.01097        0.32603
H          0.86191       -2.67639       -0.07970
H         -0.66845        2.98291       -0.85886
H         -0.59052        2.96358        0.88823
H         -2.11872        2.54698        0.07792
H          4.59995       -0.62047        0.45124
H          3.44794        0.45824        1.28225
H          3.91253        0.79216       -0.40623
C         -2.85974        0.13021        0.07616
N         -4.00284        0.28600        0.13088
