18
10154120_b3lyp_0.log	Energy: -369805.4020550
C          4.29488        0.15199        0.00040
C          2.85431       -0.01577       -0.00069
C          1.65341       -0.14802       -0.00037
C          0.25659       -0.31227       -0.00010
C         -0.62442        0.73523        0.00009
C         -2.10217        0.52077        0.00051
O         -2.88143        1.45478        0.00110
C         -2.58428       -0.88073        0.00101
C         -1.74039       -1.91856        0.00045
C         -0.27278       -1.73151       -0.00050
O          0.48441       -2.68042       -0.00195
H          4.59193        0.95163       -0.68420
H          4.79675       -0.77146       -0.29939
H          4.64523        0.42225        1.00136
H         -3.66174       -1.00146        0.00163
H         -2.07861       -2.94867        0.00050
C         -0.16774        2.08517       -0.00077
N          0.21116        3.17644       -0.00190
