19
102160488_b3lyp_0.log	Energy: -417055.0247718
C         -0.92383       -1.49391       -0.32883
C         -1.94550       -0.35137       -0.55774
C         -1.15646        0.98031       -0.28389
O         -1.63907        2.07530       -0.25672
C          0.26870        0.57256       -0.10691
C          0.37739       -0.77096       -0.13638
C          1.68811       -1.46332        0.02191
O          1.77046       -2.67751       -0.02218
C          2.86672       -0.59028        0.23167
C          2.75658        0.74594        0.26294
C          1.45314        1.45214        0.08915
O          1.39136        2.66409        0.10471
H         -1.16187       -2.09068        0.55596
H         -0.87274       -2.19203       -1.16723
H         -2.23886       -0.30665       -1.61235
H          3.81681       -1.09838        0.35461
H          3.61394        1.39309        0.41254
C         -3.15455       -0.45815        0.24381
N         -4.10302       -0.56259        0.89080
