18
11040862_b3lyp_2.log	Energy: -393136.0847789
C          2.78992       -1.62157        0.50412
C          2.39986       -0.27941       -0.05607
O          3.21675        0.50104       -0.49365
C          0.93641        0.15475       -0.03259
C          0.67169        1.47304        0.02292
C         -0.70556        2.01353        0.08064
O         -0.91792        3.21146        0.14221
C         -1.82374        1.04196        0.06296
C         -1.58636       -0.28118       -0.01150
C         -0.18309       -0.83117       -0.08096
O         -0.00700       -2.02642       -0.19549
H          2.45535       -2.41591       -0.16698
H          2.30500       -1.80642        1.46641
H          3.87331       -1.65215        0.61093
H          1.47869        2.19767        0.03032
H         -2.82644        1.45080        0.10685
C         -2.65313       -1.23175       -0.03817
N         -3.52808       -1.98454       -0.05431
