22
11228886_b3lyp_1.log	Energy: -371358.9063206
C          2.53601       -0.54744       -1.27854
C          1.70585       -0.79072       -0.00012
C          2.53556       -0.54905        1.27891
C          0.41870        0.00564        0.00004
C         -0.80896       -0.57900       -0.00008
C         -2.08932        0.20603        0.00014
O         -3.17074       -0.34820       -0.00009
C         -1.97735        1.68033        0.00028
C         -0.78354        2.28146        0.00026
C          0.48262        1.51092       -0.00007
O          1.54985        2.09979       -0.00009
H          2.91830        0.47247       -1.31874
H          1.94439       -0.73729       -2.17806
H          3.38535       -1.23539       -1.28929
H          2.91818        0.47067        1.32036
H          1.94348       -0.73966        2.17797
H          3.38464       -1.23732        1.28930
H         -2.91449        2.22528        0.00039
H         -0.66851        3.35965        0.00037
H          1.41407       -1.84388       -0.00080
C         -0.96713       -2.00173       -0.00029
N         -1.09613       -3.14941       -0.00046
