22
11228886_b3lyp_3.log	Energy: -371358.8291764
C         -2.85430       -0.49131       -1.27604
C         -2.36716        0.22469       -0.00008
C         -2.85461       -0.49057        1.27619
C         -0.86681        0.44402       -0.00002
C         -0.33168        1.68048       -0.00008
C          1.11978        1.94217       -0.00005
O          1.57103        3.07606       -0.00015
C          2.03028        0.77141        0.00004
C          1.53692       -0.48022        0.00006
C          0.05089       -0.74145       -0.00009
O         -0.35854       -1.88431       -0.00010
H         -2.49090       -1.51848       -1.31947
H         -2.52420        0.03373       -2.17645
H         -3.94725       -0.51463       -1.28493
H         -2.49142       -1.51779        1.32019
H         -2.52453        0.03487        2.17637
H         -3.94757       -0.51367        1.28495
H         -2.80741        1.22792       -0.00040
H         -0.95795        2.56694       -0.00013
H          3.09393        0.97920        0.00008
C          2.39536       -1.62321        0.00014
N          3.10648       -2.53260        0.00020
