20
11958_b3lyp_1.log	Energy: -393894.8176795
C         -3.49829       -0.27748        0.00025
C         -2.05557        0.11862       -0.00005
C         -1.62729        1.39092        0.00003
C         -0.20555        1.75711       -0.00020
O          0.16081        2.91330        0.00002
C          0.82289        0.63095       -0.00011
C          0.40123       -0.67236       -0.00021
C         -1.05513       -0.99894       -0.00057
O         -1.43242       -2.15544        0.00013
O          2.04295        1.12781        0.00008
C          3.23743        0.32069        0.00018
H         -4.14490        0.60037        0.00047
H         -3.72554       -0.89362        0.87438
H         -3.72594       -0.89349       -0.87386
H          3.28230       -0.30018        0.89433
H          3.28250       -0.30011       -0.89400
H          4.05120        1.04173        0.00030
H         -2.31421        2.23039        0.00026
C          1.25964       -1.81195       -0.00004
N          1.92110       -2.75941        0.00008
