16
12209139_b3lyp_1.log	Energy: -392374.5216273
C          2.43238        0.98597       -0.00003
C          1.46003        1.91501       -0.00003
C          0.00535        1.59160        0.00014
O         -0.84643        2.45953       -0.00008
C         -0.29480        0.14597        0.00006
C         -1.47945       -0.54289        0.00007
O         -1.22345       -1.88993       -0.00021
C          0.11866       -2.05538        0.00011
C          0.74121       -0.84181        0.00004
C          2.16977       -0.48050        0.00005
O          3.07449       -1.29554       -0.00004
H          3.48066        1.26520       -0.00010
H          0.47682       -3.07114        0.00012
H          1.69078        2.97500       -0.00010
C         -2.83253       -0.14369        0.00005
N         -3.94412        0.17041       -0.00001
