26
12344381_b3lyp_0.log	Energy: -548111.3039742
C         -3.47348        1.10540       -0.00022
C         -3.44023       -0.30095       -0.00006
C         -2.21682       -0.97490        0.00004
C         -1.02537       -0.24854       -0.00002
C         -1.05987        1.15395       -0.00018
C         -2.28857        1.82286       -0.00028
C          0.20061        1.94819       -0.00025
O          0.17954        3.16602       -0.00040
C          1.49559        1.19869       -0.00011
C          2.67894        1.94212       -0.00016
C          3.90828        1.29746       -0.00002
C          3.96366       -0.09255        0.00017
C          2.78750       -0.85566        0.00021
C          1.53306       -0.20759        0.00006
C          0.26671       -1.00115        0.00008
O          0.27903       -2.21636        0.00016
C          2.95557       -2.28003        0.00041
N          3.25584       -3.39546        0.00059
H         -4.42771        1.61734       -0.00030
H         -2.17461       -2.05655        0.00016
H         -2.29107        2.90552       -0.00041
H          2.60728        3.02248       -0.00030
H          4.82681        1.87199       -0.00005
H          4.91783       -0.60464        0.00028
C         -4.66680       -1.04010        0.00001
N         -5.66152       -1.62692        0.00006
