27
12506460_b3lyp_1.log	Energy: -538009.1513313
C          2.09778        3.89164        0.00046
C          1.84715        2.71390       -0.00015
C          1.73519        1.29224       -0.00013
C          0.50924        0.57927       -0.00002
C          0.53344       -0.82929        0.00000
C          1.73789       -1.52745        0.00001
C          2.94467       -0.82515       -0.00005
C          2.93921        0.57159       -0.00013
C         -0.72688       -1.64550       -0.00003
O         -0.67530       -2.86309        0.00029
C         -2.01943       -0.91712       -0.00001
C         -3.21479       -1.64407       -0.00005
C         -4.43331       -0.97750       -0.00007
C         -4.46707        0.42037       -0.00002
C         -3.28389        1.14888        0.00004
C         -2.05173        0.48681        0.00005
C         -0.80138        1.30366        0.00020
O         -0.85458        2.51954       -0.00030
H          2.26227        4.94174        0.00025
H          3.87475        1.11533       -0.00018
H         -3.16310       -2.72569       -0.00009
H         -5.35862       -1.54204       -0.00012
H         -5.41918        0.93859       -0.00001
H         -3.28946        2.23157        0.00012
H          1.71622       -2.60934        0.00003
C          4.19142       -1.53089       -0.00004
N          5.19872       -2.09571       -0.00003
