21
12913941_b3lyp_1.log	Energy: -417808.4005569
C         -0.00970       -2.14836       -0.06023
C         -1.53135       -2.04831       -0.03600
O         -1.98855       -1.03520       -0.94448
C         -1.57992        0.26360       -0.57122
C         -0.09048        0.33524       -0.26557
C          0.62045       -0.78486       -0.03879
C          2.09189       -0.69461        0.22345
O          2.75287       -1.69817        0.42689
C          2.71710        0.65043        0.23707
C          1.99810        1.75522        0.00656
C          0.54697        1.67838       -0.28891
O         -0.09832        2.67616       -0.56527
H          0.35468       -2.73513        0.78780
H          0.33124       -2.67520       -0.95886
H         -1.89464       -1.82499        0.97476
H         -1.80021        0.91647       -1.41922
H          3.78130        0.67399        0.44337
H          2.42940        2.74997        0.00591
H         -2.00007       -2.97235       -0.37141
C         -2.36751        0.75821        0.58477
N         -2.98614        1.10505        1.49341
