24
130029677_b3lyp_prop_0.log	Energy: -419167.5192514
C         -1.01855        2.60680       -0.00013
C         -0.34227        1.27224       -0.00005
C         -1.00242        0.08163       -0.00005
C         -0.24901       -1.21734       -0.00006
O         -0.83181       -2.28394       -0.00001
C          1.25205       -1.19732       -0.00002
C          1.88773       -0.00287        0.00002
C          1.14338        1.29731        0.00005
O          1.75323        2.35135        0.00008
C          3.31503        0.08803        0.00008
N          4.46877        0.13926        0.00006
C          1.93308       -2.52676       -0.00006
H         -0.71157        3.18785       -0.87447
H         -0.71121        3.18818        0.87387
H         -2.10141        2.49846        0.00009
H          3.01701       -2.42469        0.00025
H          1.62171       -3.10652        0.87333
H          1.62222       -3.10621       -0.87384
C         -2.41666       -0.02532       -0.00005
C         -3.61664       -0.15704        0.00003
C         -5.06029       -0.32608        0.00011
H         -5.50782        0.13762        0.88420
H         -5.50797        0.13790       -0.88374
H         -5.32639       -1.38644        0.00001
