21
130412007_b3lyp_3.log	Energy: -394512.1051184
C          3.29733       -0.16821        0.39987
C          2.42258        0.93153       -0.21732
C          0.95328        0.62326       -0.08643
C          0.52877       -0.66829       -0.09995
C          1.48503       -1.76941       -0.16740
C          2.78790       -1.54530        0.06385
C         -0.92322       -1.00758       -0.05445
O         -1.31893       -2.15477       -0.08922
C         -1.89649        0.13670        0.02705
C         -1.46079        1.40939        0.03546
C         -0.01243        1.73786       -0.03159
O          0.33971        2.90890       -0.04170
H          3.32125       -0.06881        1.49565
H          4.33157       -0.04870        0.06751
H          2.63855        1.90732        0.21968
H         -2.13853        2.25359        0.08830
H          2.64556        1.02277       -1.29049
H          1.09681       -2.76322       -0.34956
H          3.48736       -2.37505        0.07423
C         -3.28776       -0.18277        0.08904
N         -4.41630       -0.42057        0.14188
