25
130412007_b3lyp_prop_0.log	Energy: -409091.2802646
C          1.72422       -0.36038       -1.29585
C          0.59876        0.67860       -1.51565
C         -0.57826        0.46296       -0.60511
C         -0.90815       -0.79404       -0.21150
C         -0.08378       -1.93535       -0.59537
C          1.14257       -1.75349       -1.10406
C         -2.12199       -1.03987        0.62339
O         -2.44995       -2.16637        0.95946
C         -2.93127        0.13665        1.02684
C         -2.60046        1.37261        0.63685
C         -1.40688        1.62604       -0.21265
O         -1.13356        2.76350       -0.57044
H          2.34514       -0.36427       -2.19865
H          0.97977        1.69431       -1.40821
H          0.23999        0.58576       -2.55050
H         -0.47536       -2.92526       -0.39676
H          1.78517       -2.59990       -1.32062
H         -3.79830       -0.07450        1.64291
H         -3.17657        2.24923        0.91219
C          2.59678       -0.03392       -0.15982
C          3.31379        0.22511        0.77328
C          4.17777        0.54324        1.90335
H          5.22531        0.60334        1.59449
H          3.90359        1.50468        2.34700
H          4.10059       -0.21939        2.68370
