25
130412007_b3lyp_prop_1.log	Energy: -409090.4601744
C          1.20748        1.56388       -1.54946
C          1.13121        0.09095       -1.08373
C         -0.25495       -0.22265       -0.53346
C         -0.96933        0.74239        0.10002
C         -0.47833        2.11302        0.18561
C          0.54616        2.50921       -0.58384
C         -2.28515        0.41693        0.73422
O         -2.93012        1.26174        1.33325
C         -2.78224       -0.97591        0.62028
C         -2.07781       -1.91388       -0.02245
C         -0.76907       -1.60458       -0.65684
O         -0.15910       -2.46994       -1.26909
H          2.25256        1.83724       -1.71060
H          1.30930       -0.56567       -1.94002
H         -1.00185        2.79493        0.84338
H          0.87940        3.54167       -0.56116
H         -3.74001       -1.17564        1.08789
H         -2.41906       -2.93829       -0.12384
H          0.70758        1.65886       -2.52482
C          2.13834       -0.22377       -0.06141
C          2.96543       -0.48542        0.77434
C          3.96508       -0.80968        1.78441
H          4.29187       -1.84952        1.69341
H          4.84755       -0.17121        1.68342
H          3.56550       -0.66974        2.79303
