26
13182761_b3lyp_2.log	Energy: -548111.4330536
C         -3.92048        0.75352        0.00013
C         -3.46626        2.06842        0.00015
C         -2.10316        2.33105        0.00013
C         -1.18470        1.27784        0.00006
C         -1.62628       -0.05778       -0.00010
C         -3.01446       -0.31642        0.00001
C         -0.64276       -1.18280       -0.00056
O         -1.00562       -2.34312        0.00048
C          0.81154       -0.83743       -0.00015
C          1.24800        0.49585        0.00003
C          0.27165        1.62182        0.00039
O          0.64326        2.78123       -0.00059
C          2.61296        0.78522        0.00006
C          3.54265       -0.25688        0.00002
C          3.10485       -1.59369       -0.00006
C          1.74843       -1.87630       -0.00015
C          4.94502        0.03306        0.00011
N          6.07763        0.25907        0.00017
H         -4.98187        0.53882        0.00016
H          2.93266        1.81938        0.00021
H          3.83355       -2.39473       -0.00010
H          1.39115       -2.89833       -0.00029
H         -4.17980        2.88366        0.00025
H         -1.72282        3.34481        0.00025
C         -3.58623       -1.63162       -0.00009
N         -4.19457       -2.61359       -0.00011
