30
13182761_b3lyp_prop_0.log	Energy: -562698.9810993
C         -3.30231        0.31823        0.00043
C         -2.92530        1.67753        0.00022
C         -1.58858        2.03977        0.00017
C         -0.58685        1.06258        0.00022
C         -0.95110       -0.29733        0.00028
C         -2.29707       -0.65944        0.00043
C          0.08030       -1.37471        0.00015
O         -0.22437       -2.55469        0.00065
C          1.51550       -0.95281        0.00006
C          1.87427        0.40508        0.00004
C          0.83770        1.48521        0.00021
O          1.16040        2.66129       -0.00011
C          3.22083        0.76900       -0.00012
C          4.20910       -0.21835       -0.00024
C          3.84925       -1.57791       -0.00019
C          2.51071       -1.93580       -0.00003
C          5.59265        0.15135       -0.00039
N          6.71082        0.44114       -0.00052
H         -3.69666        2.43791        0.00007
H         -1.29408        3.08193        0.00005
H         -2.55474       -1.71059        0.00044
H          3.48045        1.81992       -0.00012
H          4.62269       -2.33588       -0.00030
H          2.21108       -2.97626       -0.00001
C         -4.67724       -0.05388        0.00073
C         -5.84288       -0.36767        0.00064
C         -7.24622       -0.75213       -0.00106
H         -7.87737        0.06214        0.36527
H         -7.57871       -1.00728       -1.01183
H         -7.41312       -1.62495        0.63640
