24
134204124_b3lyp_prop_1.log	Energy: -385172.0732690
C         -1.53509        2.54661        0.00005
C         -0.98588        1.14323       -0.00049
C         -1.77039        0.02433       -0.00057
C         -1.11451       -1.32768       -0.00128
O         -1.75681       -2.36865       -0.00268
C          0.35603       -1.40647       -0.00044
C          1.14754       -0.31458       -0.00018
C          0.50647        1.04740       -0.00055
O          1.20173        2.04763       -0.00081
C         -3.23085        0.14986       -0.00027
C         -4.16251       -0.81575        0.00393
H         -2.15491        2.73003        0.88238
H         -2.15511        2.73068       -0.88202
H         -0.71734        3.26397        0.00015
H         -3.58846        1.17321       -0.00348
H         -5.21073       -0.53687        0.00377
H         -3.91793       -1.86678        0.00739
H          0.76422       -2.41005       -0.00040
C          2.56253       -0.37759        0.00036
C          3.76898       -0.41392        0.00081
C          5.22203       -0.44635        0.00127
H          5.60036       -0.96722        0.88591
H          5.60088       -0.96991       -0.88156
H          5.63357        0.56652       -0.00014
