24
134204124_b3lyp_prop_0.log	Energy: -385171.9481712
C         -3.36311       -0.86260        0.00015
C         -1.87999       -0.60409        0.00004
C         -1.32343        0.64374       -0.00009
C          0.17060        0.79647       -0.00012
O          0.71171        1.88495       -0.00027
C          1.02899       -0.44816       -0.00002
C          0.44492       -1.66393        0.00001
C         -1.01427       -1.82394        0.00003
O         -1.50323       -2.94740       -0.00001
C         -2.18794        1.82951       -0.00026
C         -1.85557        3.12912        0.00036
H         -3.84293       -0.42937       -0.88229
H         -3.84310       -0.42789        0.88175
H         -3.54834       -1.93486        0.00097
H          1.02439       -2.57928        0.00005
H         -3.24726        1.59941       -0.00098
H         -2.64456        3.87344        0.00011
H         -0.83406        3.47626        0.00108
C          2.43381       -0.26586       -0.00000
C          3.62935       -0.09979        0.00003
C          5.06772        0.10865        0.00009
H          5.52748       -0.34582        0.88279
H          5.52706       -0.34246       -0.88455
H          5.30698        1.17540        0.00204
