15
13839673_b3lyp_0.log	Energy: -402417.4447792
C          0.96872        1.43888        0.00002
C          1.52661        0.20614        0.00003
C          0.71836       -1.07468        0.00003
O          1.24064       -2.16079        0.00003
C         -0.75089       -0.83818        0.00003
N         -1.66279       -1.77681       -0.00014
O         -2.87764       -1.08831        0.00006
C         -2.66036        0.23095       -0.00002
C         -1.31818        0.46897        0.00001
C         -0.50324        1.68602        0.00009
O         -0.94786        2.81829       -0.00007
H          1.58694        2.32968       -0.00002
H         -3.53092        0.86750        0.00001
C          2.94839        0.05404       -0.00001
N          4.09800       -0.04942       -0.00004
