17
141161619_b3lyp_1.log	Energy: -416275.6088522
C         -0.41787       -0.88346        0.00003
C         -1.04677        0.31112       -0.00002
C         -0.31373        1.58335       -0.00035
C          1.17859        1.46164       -0.00016
C          1.81927        0.27418       -0.00012
C          1.05522       -1.02316       -0.00002
C         -1.39996       -2.00154        0.00015
C         -2.63841       -1.49163        0.00009
C         -2.54430        0.01595        0.00029
H         -1.10497       -3.04108        0.00009
O         -0.83375        2.68300       -0.00002
O          1.60638       -2.10336       -0.00009
O         -3.45387        0.80128        0.00033
H         -3.58254       -2.01590        0.00002
H          1.72092        2.40035       -0.00015
C          3.24553        0.19261       -0.00010
N          4.39873        0.13928       -0.00008
