24
141345307_b3lyp_prop_0.log	Energy: -385174.7106191
O         -1.88734        2.16660       -0.07022
O          0.79487       -2.41806       -0.10408
C          0.22204        1.12761        0.00098
C         -1.99904       -0.19803       -0.06855
C         -1.26578        1.11499       -0.04595
C          0.91788       -0.04249       -0.01635
C         -1.28124       -1.33767       -0.11828
C          0.18961       -1.35980       -0.08175
C          0.86314        2.47998        0.05705
C         -3.46420       -0.12741       -0.06733
C         -4.28673       -1.12119        0.28269
H         -1.74872       -2.31357       -0.18951
H          0.56923        3.07683       -0.81108
H          1.94814        2.39919        0.08830
H          0.51540        3.03045        0.93598
H         -3.87385        0.83755       -0.34476
H         -5.36146       -0.98793        0.25179
H         -3.92668       -2.08602        0.62417
C          2.33393       -0.11036        0.02073
C          3.53674       -0.21112        0.04885
C          4.98376       -0.34720        0.08223
H          5.44468        0.16171       -0.76967
H          5.39735        0.09012        0.99593
H          5.27494       -1.40046        0.04732
