18
141333781_b3lyp_0.log	Energy: -393130.0291814
C          1.11858       -1.35810        0.52834
C          2.00892       -0.07961        0.66434
O          1.11887        1.07737        0.52969
C         -0.10638        0.59964        0.23440
C         -0.21509       -0.74036        0.20333
C         -1.48427       -1.39967       -0.09154
O         -1.61643       -2.61402       -0.11464
C         -2.64092       -0.48936       -0.36476
C         -2.52972        0.84563       -0.32955
C         -1.24410        1.52791       -0.01839
O         -1.13389        2.73510        0.02895
H          1.47567       -2.02607       -0.25710
H          1.09323       -1.92613        1.46109
H          2.47549        0.00127        1.64682
H         -3.57842       -0.98525       -0.59053
H         -3.36791        1.50524       -0.52375
C          3.05249        0.01152       -0.35979
N          3.88521        0.04825       -1.15526
