21
14642912_b3lyp_1.log	Energy: -394484.4850218
C         -3.34939        0.51730        0.93479
C         -2.45999        0.98206        0.05684
C         -1.04676        0.56761       -0.02975
C         -0.55882       -0.70607        0.01362
C          0.91913       -0.94776        0.11094
O          1.37171       -2.06354        0.27179
C          1.84751        0.22734        0.00931
C          1.35955        1.46920       -0.14068
C         -0.09908        1.71815       -0.18999
O         -0.50102        2.85712       -0.36218
C         -1.34294       -1.95621       -0.01706
C         -2.34904       -2.21346       -0.85324
H         -3.11384       -0.27303        1.63784
H         -4.35104        0.92895        0.97573
H          1.99535        2.34230       -0.22900
H         -0.97025       -2.74678        0.62574
H         -2.82982       -3.18467       -0.85550
H         -2.72010       -1.47963       -1.55910
H         -2.72978        1.81669       -0.58186
C          3.25112       -0.03104        0.07604
N          4.38946       -0.21644        0.12634
