20
15321799_b3lyp_2.log	Energy: -370601.5841528
C          3.06326       -0.94012        0.21376
C          2.68744        0.54009       -0.07233
C          1.18386        0.51781       -0.02337
C          0.69432       -0.73801       -0.03069
C          1.78619       -1.77254       -0.08628
C         -0.75171       -1.02649       -0.02768
O         -1.20144       -2.15457       -0.05460
C         -1.66485        0.17883        0.01081
C         -1.16776        1.43135        0.01862
C          0.29885        1.69690       -0.01057
O          0.71840        2.84237       -0.02314
H          3.32761       -1.04962        1.26825
H          3.92156       -1.27126       -0.37175
H          3.01860        0.87060       -1.06423
H          1.81051       -2.22975       -1.08275
H         -1.80940        2.30473        0.04274
H          3.11660        1.24411        0.64397
H          1.62275       -2.58847        0.62103
C         -3.07231       -0.06514        0.03562
N         -4.21254       -0.24556        0.05675
