23
15736817_b3lyp_prop_2.log	Energy: -431643.4656738
C          4.56064       -0.92913        0.00023
C          3.09499       -0.69449        0.00012
C          2.01007       -1.52527        0.00006
C          0.86443       -0.67378       -0.00003
C          1.33572        0.61106       -0.00002
O          2.68775        0.61616        0.00005
C          0.50570        1.81304       -0.00006
O          0.93695        2.95525       -0.00014
C         -0.95030        1.51983        0.00003
C         -1.47876        0.27015       -0.00005
C         -0.57822       -0.95945       -0.00019
O         -1.03278       -2.08506       -0.00044
H          5.02828       -0.48380        0.88309
H          5.02835       -0.48429       -0.88285
H          4.76543       -1.99997        0.00052
H          2.02245       -2.60308        0.00010
H         -1.59176        2.39325        0.00011
C         -2.87568        0.03614       -0.00008
C         -4.06183       -0.18837       -0.00008
C         -5.48884       -0.46391        0.00014
H         -5.95617       -0.09693        0.91893
H         -5.98175        0.02742       -0.84402
H         -5.67783       -1.53827       -0.07203
