23
15736817_b3lyp_prop_0.log	Energy: -431642.9170467
C         -1.30798        3.02906        0.00014
C         -0.54406        1.75993        0.00003
C         -0.93887        0.43604        0.00007
C          0.28514       -0.32169        0.00004
C          1.30640        0.59058        0.00005
O          0.81577        1.85220        0.00003
C          2.73215        0.27659       -0.00004
O          3.62873        1.10291       -0.00026
C          3.00477       -1.19314       -0.00007
C          2.03152       -2.11598       -0.00000
C          0.57628       -1.76715        0.00015
O         -0.27837       -2.63452        0.00022
H         -1.06846        3.62948       -0.88261
H         -1.07008        3.62839        0.88408
H         -2.37593        2.81176       -0.00092
H          4.05489       -1.46418       -0.00017
H          2.24833       -3.17861       -0.00002
C         -2.27063       -0.03911        0.00006
C         -3.40539       -0.44830       -0.00014
C         -4.76046       -0.97749       -0.00023
H         -5.31423       -0.64741        0.88371
H         -5.31344       -0.64917       -0.88531
H         -4.74336       -2.07096        0.00088
