29
18771_b3lyp_prop_0.log	Energy: -1071726.3326885
S         -1.42391        1.69724       -0.82711
S         -2.54926       -1.48532       -0.69035
O          1.39895        1.75765       -0.61448
O         -0.33113       -3.27340       -0.25936
N         -4.20932        3.16742        1.02920
N         -5.59577       -0.73322        1.19294
C          1.98618       -0.47669       -0.01084
C          1.50847       -1.80171        0.05762
C         -0.40708        0.27576       -0.48967
C         -0.85745       -0.98989       -0.43001
C          1.05062        0.61750       -0.37337
C          0.07726       -2.12806       -0.20377
C          3.35514       -0.21603        0.24635
C          2.36263       -2.85656        0.36799
C          4.19151       -1.30397        0.57470
C          3.70613       -2.60104        0.63092
C         -2.94174        1.19122       -0.03653
C         -3.39455       -0.08408        0.01773
C         -3.65129        2.26509        0.56998
C         -4.60595       -0.42221        0.68308
H          1.95960       -3.86059        0.40199
H          5.23494       -1.10125        0.78149
H          4.37497       -3.41618        0.88131
C          3.94083        1.07803        0.20899
C          4.52605        2.13369        0.20450
C          5.16619        3.43781        0.17414
H          6.02038        3.43828       -0.50946
H          4.46214        4.20604       -0.15735
H          5.53410        3.71660        1.16612
