17
212470_b3lyp_1.log	Energy: -413895.1338741
C         -2.95260        0.03411       -0.00005
C         -2.52911        1.30756       -0.00010
C         -1.09326        1.68138        0.00002
O         -0.73700        2.83758        0.00021
C         -0.10117        0.53514       -0.00006
N          1.19807        0.83285       -0.00018
C          2.03359       -0.20484       -0.00030
N          1.71556       -1.50875       -0.00001
C          0.41708       -1.78963        0.00009
C         -0.55830       -0.78609        0.00002
C         -2.01523       -1.11231        0.00002
O         -2.41091       -2.26310        0.00009
H         -4.00621       -0.22298       -0.00006
H          0.12779       -2.83542        0.00023
H         -3.22147        2.14235       -0.00016
C          3.44554        0.10498       -0.00002
N          4.57264        0.34710        0.00017
