21
223813_b3lyp_0.log	Energy: -394515.8152381
C          1.22053        0.97026        0.00006
C          2.17920       -0.19886        0.00004
C          1.78328       -1.47890        0.00003
C          0.34807       -1.89846        0.00003
C         -0.61626       -0.74466       -0.00019
C         -0.22153        0.54434       -0.00017
C         -1.22974        1.64746       -0.00040
O         -0.87980        2.81622        0.00014
C         -2.66794        1.28587        0.00014
C         -3.05867        0.00704        0.00013
C         -2.06762       -1.09574       -0.00055
O         -2.42965       -2.26141        0.00026
H          1.41029        1.61525        0.86592
H          1.41051        1.61549       -0.86558
H          2.52851       -2.26717        0.00002
H          0.14421       -2.54483       -0.86353
H          0.14414       -2.54457        0.86378
H         -3.36448        2.11681        0.00051
H         -4.10075       -0.29255        0.00052
C          3.57366        0.12222        0.00004
N          4.69219        0.41424        0.00004
