18
22489347_b3lyp_2.log	Energy: -369832.5095955
C         -1.85910       -1.76374        0.00004
C         -3.07732       -0.88224       -0.00009
C         -2.71681        0.41966        0.00007
C         -1.26142        0.48785        0.00003
C         -0.73855       -0.77029       -0.00006
C          0.69595       -1.04075       -0.00021
O          1.17876       -2.15798        0.00011
C          1.58241        0.19135       -0.00003
C          1.06793        1.43796        0.00002
C         -0.40093        1.68875        0.00016
O         -0.84055        2.82497       -0.00008
H         -1.82018       -2.42670       -0.87372
H         -1.82021       -2.42655        0.87391
H          1.69990        2.31860        0.00004
H         -4.08913       -1.26438       -0.00014
H         -3.36749        1.28228        0.00015
C          2.99476       -0.02520       -0.00000
N          4.13856       -0.18276        0.00000
