22
22489347_b3lyp_prop_2.log	Energy: -384416.0674467
C         -0.97889        2.18932       -0.00009
C          0.51846        2.16451       -0.00006
C          0.98254        0.88403       -0.00000
C         -0.19296       -0.00935       -0.00003
C         -1.33114        0.73599       -0.00006
C         -2.67232        0.14397        0.00003
O         -3.69771        0.81171        0.00009
C         -2.72184       -1.34630        0.00010
C         -1.60927       -2.09291        0.00009
C         -0.24329       -1.49257       -0.00006
O          0.74916       -2.19871       -0.00026
H         -1.39300        2.70967       -0.87365
H         -3.71441       -1.78371        0.00017
H         -1.63748       -3.17714        0.00014
H         -1.39306        2.70970        0.87344
H          1.13901        3.04968       -0.00008
C          2.34050        0.47717        0.00009
C          3.49749        0.13627        0.00006
C          4.88176       -0.31005        0.00010
H          5.41282        0.05308       -0.88493
H          5.41398        0.05672        0.88293
H          4.93437       -1.40247        0.00230
