23
23162507_b3lyp_2.log	Energy: -395284.3930017
C         -3.83426       -0.86216       -0.12709
C         -2.47890       -0.22739       -0.06711
C         -2.27274        1.10288       -0.07862
C         -0.92466        1.71765       -0.01956
O         -0.77055        2.92899       -0.04220
C          0.22152        0.78541        0.06972
C          0.04256       -0.54621        0.08397
C         -1.30037       -1.16001        0.00893
O         -1.45080       -2.37073        0.00879
C          1.34321       -1.30062        0.13303
C          2.36041       -0.17385        0.50868
C          1.67371        1.17227        0.10630
H         -4.00363       -1.49078        0.75161
H         -3.91114       -1.52307       -0.99486
H         -4.61899       -0.10719       -0.18238
H          1.56824       -1.74174       -0.84372
H          2.48702       -0.17882        1.59540
H          1.88775        1.97769        0.81066
H          2.00258        1.51806       -0.87951
H         -3.09737        1.80621       -0.13416
H          1.34069       -2.11807        0.85576
C          3.68064       -0.35707       -0.08373
N          4.72127       -0.50196       -0.55979
