21
265508_b3lyp_1.log	Energy: -428513.1710657
C         -3.04096       -2.33413       -0.00011
C         -1.87769       -1.38365       -0.00006
C         -0.55204       -1.83051       -0.00005
C          0.47828       -0.89985       -0.00002
C          0.17788        0.47174        0.00007
C         -1.18698        0.82320        0.00001
N         -2.17544       -0.07785       -0.00003
C          1.27842        1.47918        0.00026
O          1.07263        2.67794       -0.00038
C          2.67030        0.95997       -0.00001
C          2.96102       -0.34817       -0.00005
C          1.90340       -1.37904       -0.00017
O          2.17169       -2.56617        0.00029
H         -3.66629       -2.15749        0.87880
H         -2.71372       -3.37423       -0.00061
H         -3.66682       -2.15677       -0.87849
H          3.44096        1.72309       -0.00007
H          3.98087       -0.71683       -0.00007
H         -0.31193       -2.88636       -0.00012
C         -1.64615        2.19072        0.00013
N         -2.11177        3.24609        0.00020
