29
2764161_b3lyp_0.log	Energy: -572792.3904929
C         -4.06724        1.09123        0.00017
C         -4.10389       -0.31463        0.00014
C         -2.91455       -1.04720        0.00002
C         -1.68840       -0.38162       -0.00006
C         -1.65236        1.02292       -0.00004
C         -2.84765        1.74910        0.00007
C         -0.35386        1.76607       -0.00013
O         -0.32907        2.98432       -0.00019
C          0.89730        0.95797       -0.00014
C          0.86109       -0.44824       -0.00017
C         -0.43201       -1.19195       -0.00019
O         -0.46749       -2.40980       -0.00028
C          2.05268       -1.17293       -0.00018
C          3.28480       -0.52029       -0.00016
C          3.31500        0.87836       -0.00011
C          2.13233        1.60915       -0.00011
C          4.54942       -1.36987       -0.00023
C          5.79791       -0.61352        0.00039
N          6.78279       -0.01498        0.00081
H         -4.99476        1.65019        0.00026
H         -2.92565       -2.12961       -0.00001
H         -2.79685        2.83066        0.00008
H          1.99097       -2.25569       -0.00021
H          4.26608        1.39824       -0.00006
H          2.14897        2.69194       -0.00008
H          4.55136       -2.02760        0.87563
H          4.55177       -2.02682       -0.87669
C         -5.36454       -0.99404        0.00024
N         -6.38502       -1.53506        0.00032
