25
2818090_b3lyp_1.log	Energy: -396041.9939675
C          3.53531       -0.59876        0.74845
C          2.71798       -0.34526       -0.53678
C          1.24404       -0.29606       -0.26754
C          0.53366        0.84562       -0.09240
C         -0.93347        0.84788        0.21790
O         -1.52571        1.89403        0.39822
C         -1.63585       -0.47043        0.31377
C         -0.92457       -1.59903        0.14821
C          0.51730       -1.60838       -0.15542
O          1.11625       -2.65819       -0.32360
C         -3.11474       -0.44853        0.58163
C         -3.94193       -0.08124       -0.66581
H          3.38191        0.20147        1.47613
H          4.59932       -0.63547        0.50499
H          3.25977       -1.54964        1.20767
H          2.91065       -1.15587       -1.24308
H         -1.38404       -2.57974        0.21991
H         -3.41812       -1.43176        0.95038
H         -3.31911        0.28090        1.36987
H         -3.77584       -0.79975       -1.47261
H         -5.00675       -0.08596       -0.42152
H         -3.68386        0.91495       -1.02848
H          3.03689        0.59300       -0.99455
C          1.15671        2.13028       -0.18274
N          1.67831        3.15781       -0.26018
