35
346879_b3lyp_prop_0.log	Energy: -554156.1699387
C          4.53694       -1.34511        0.00002
C          3.03293       -1.39367        0.00006
C          2.26747       -0.19721        0.00001
C          0.84982       -0.27261        0.00010
C          0.22234       -1.53642        0.00008
C          0.98901       -2.70020        0.00009
C          2.37376       -2.62245        0.00012
C         -1.26356       -1.69252        0.00001
O         -1.78055       -2.79941       -0.00012
C         -2.08676       -0.45545        0.00009
C         -1.47390        0.80422        0.00037
C          0.01188        0.96600        0.00027
O          0.50084        2.08344        0.00033
C         -2.27921        1.94922        0.00088
C         -3.66089        1.83435        0.00095
C         -4.28800        0.57645        0.00034
C         -3.48170       -0.55907        0.00009
C         -5.79233        0.47071       -0.00143
H          4.91296       -0.80935        0.87616
H          4.91294       -0.81011       -0.87660
H          4.95740       -2.35191        0.00044
H          0.47789       -3.65457        0.00008
H          2.96150       -3.53421        0.00017
H         -1.79761        2.91908        0.00134
H         -4.27060        2.73260        0.00157
H         -3.91841       -1.55088        0.00001
H         -6.22264        0.97450        0.86947
H         -6.21778        0.94418       -0.89168
H         -6.11836       -0.57034        0.01511
C          2.98202        1.03464       -0.00018
C          3.69243        2.01087       -0.00043
C          4.46068        3.24553       -0.00071
H          5.10176        3.31204        0.88372
H          5.10593        3.30918       -0.88230
H          3.79528        4.11386       -0.00363
