18
388306_b3lyp_1.log	Energy: -403832.6142108
C          3.29952       -0.19853       -0.00002
C          2.42755        0.87781        0.00001
C          1.05274        0.62321       -0.00001
C          0.62023       -0.71152       -0.00003
C         -0.85062       -1.03916       -0.00001
O         -1.27437       -2.16910        0.00022
C         -1.79695        0.13620       -0.00007
C         -1.36014        1.41142       -0.00011
C          0.08172        1.75140       -0.00001
O          0.43781        2.91662        0.00014
N          1.45892       -1.75039       -0.00006
C          2.76423       -1.49212       -0.00005
H          4.37294       -0.05303       -0.00002
H         -2.04486        2.25177       -0.00012
H          3.42073       -2.35743       -0.00009
H          2.77552        1.90378        0.00004
C         -3.19523       -0.16176       -0.00004
N         -4.32895       -0.37917       -0.00004
