18
388306_b3lyp_2.log	Energy: -403832.7714346
C         -2.88679       -1.41877        0.00011
C         -1.54037       -1.74454        0.00016
C         -0.60240       -0.70733        0.00006
C         -1.07022        0.61596       -0.00011
C         -0.08859        1.75651       -0.00004
O         -0.42567        2.92085       -0.00020
C          1.35620        1.40554       -0.00028
C          1.80136        0.13318       -0.00010
C          0.85186       -1.03077        0.00014
O          1.26322       -2.17213        0.00048
N         -2.36747        0.93185       -0.00011
C         -3.24758       -0.06628       -0.00000
H         -3.65063       -2.18681        0.00017
H         -4.29482        0.22198       -0.00007
H         -1.19483       -2.77128        0.00027
H          2.03909        2.24750       -0.00046
C          3.20007       -0.16467       -0.00009
N          4.33311       -0.38530       -0.00008
