22
4055_b3lyp_3.log	Energy: -418456.5326885
C          3.66173       -1.56685        0.00008
C          2.49116       -0.63299        0.00004
C          2.60920        0.70876        0.00003
C          1.45985        1.63429       -0.00010
O          1.62621        2.84307        0.00002
C          0.09111        1.03272       -0.00003
C         -1.03391        1.86006       -0.00002
C         -2.30563        1.30619       -0.00000
C         -2.46080       -0.09099        0.00001
C         -1.33735       -0.92358        0.00000
C         -0.06162       -0.36191       -0.00001
C          1.13246       -1.26248        0.00004
O          1.01160       -2.47465       -0.00015
H          4.60308       -1.01695        0.00020
H          3.62824       -2.22275       -0.87422
H          3.62808       -2.22289        0.87426
H         -1.44180       -2.00110        0.00001
H          3.58206        1.18995        0.00007
H         -0.89121        2.93353       -0.00005
H         -3.18307        1.94091        0.00000
C         -3.77450       -0.66106        0.00003
N         -4.83688       -1.11443        0.00005
