28
599944_b3lyp_prop_2.log	Energy: -433772.3926486
C         -0.58671       -2.64126        1.12916
C         -0.31838       -1.76874       -0.12616
C          1.14935       -1.46826       -0.25255
C          1.69611       -0.26177       -0.03830
C          0.84702        0.94226        0.31402
C         -0.62392        0.71180        0.11575
C         -1.15304       -0.51055       -0.10697
C         -2.61626       -0.66081       -0.36830
O         -3.10552       -1.74364       -0.65248
C         -3.47514        0.54710       -0.29272
C         -2.95330        1.75214       -0.04404
C         -1.49498        1.92395        0.16473
O         -1.02644        3.03208        0.37423
H         -0.32340       -2.09645        2.03936
H          0.02243       -3.54812        1.08957
H         -1.63557       -2.93705        1.17831
H          1.03811        1.24055        1.35364
H          1.15607        1.81001       -0.27677
H         -4.53378        0.38453       -0.46255
H         -3.54992        2.65601        0.01034
H         -0.63854       -2.36277       -0.99026
H          1.79493       -2.30619       -0.49646
C          3.10225       -0.03829       -0.12349
C          4.28463        0.20157       -0.17960
C          5.71347        0.47313       -0.25609
H          6.27367       -0.16518        0.43387
H          6.09516        0.28920       -1.26502
H          5.92986        1.51435       -0.00066
