31
616789_b3lyp_7.log	Energy: -539567.9807978
C         -3.03333       -2.67720        0.94017
C         -2.76809       -2.00031       -0.41702
C         -2.48730       -0.51587       -0.29606
C         -1.20996        0.06147       -0.08853
C         -1.08602        1.46837       -0.00084
C         -2.20729        2.29309       -0.08346
C         -3.46006        1.72998       -0.28175
C         -3.58461        0.34982       -0.39673
C          0.23756        2.13302        0.16512
O          0.33061        3.33875        0.32443
C          1.46078        1.28125        0.09315
C          2.71115        1.90566        0.10847
C          3.86841        1.14503        0.01916
C          3.78172       -0.24028       -0.08214
C          2.53518       -0.88184       -0.08099
C          1.35384       -0.11326        0.00704
C          0.01215       -0.78228        0.06034
O         -0.04151       -1.98620        0.23956
H         -2.15657       -2.61299        1.58547
H         -3.26497       -3.73513        0.79224
H         -3.88039       -2.21355        1.45396
H         -3.65417       -2.11588       -1.04925
H         -1.94399       -2.51062       -0.91268
H         -2.07034        3.36353       -0.00016
H         -4.33752        2.36212       -0.35766
H         -4.56471       -0.08171       -0.57156
H          2.74580        2.98500        0.18735
H          4.84041        1.62372        0.02459
H          4.67839       -0.84234       -0.16192
C          2.55771       -2.31141       -0.20142
N          2.74347       -3.44485       -0.32702
