35
616789_b3lyp_prop_3.log	Energy: -554149.4862751
C          4.72709        0.92601        0.98631
C          4.19678        0.46214       -0.38240
C          3.06428       -0.53981       -0.27473
C          1.69268       -0.21103       -0.12287
C          0.73140       -1.24309       -0.03254
C          1.12026       -2.58221       -0.06474
C          2.46110       -2.90760       -0.20922
C          3.40892       -1.89576       -0.32070
C         -0.74042       -0.97550        0.09715
O         -1.51336       -1.90291        0.26876
C         -1.20870        0.43118       -0.00543
C         -2.59151        0.75212       -0.02044
C         -2.96391        2.10616       -0.11412
C         -2.01240        3.11482       -0.18035
C         -0.65932        2.79888       -0.15689
C         -0.25635        1.46514       -0.07647
C          1.22140        1.19964       -0.05099
O          1.99191        2.14515        0.02719
H          3.95196        1.44937        1.54727
H          5.56703        1.61302        0.85155
H          5.07620        0.07755        1.58192
H          3.88483        1.33373       -0.95530
H          5.01150       -0.02056       -0.93167
H         -4.01961        2.34752       -0.13155
H         -2.32878        4.14946       -0.24908
H          0.10218        3.56656       -0.19920
H          0.35568       -3.34356        0.01808
H          2.77019       -3.94640       -0.24376
H          4.45400       -2.15813       -0.44912
C         -3.63933       -0.20951        0.04554
C         -4.60632       -0.93012        0.09398
C         -5.71457       -1.86871        0.16348
H         -6.30196       -1.85337       -0.75980
H         -5.34907       -2.88830        0.31652
H         -6.38898       -1.62132        0.98897
