35
616789_b3lyp_prop_0.log	Energy: -554148.6750528
C          1.14902       -4.27008        0.90346
C          0.80945       -3.61906       -0.44978
C         -0.13011       -2.43616       -0.32250
C          0.24983       -1.09134       -0.10698
C         -0.73417       -0.06624       -0.01588
C         -2.10991       -0.38734       -0.10031
C         -2.46324       -1.73216       -0.31087
C         -1.50012       -2.71301       -0.42787
C         -0.33530        1.36620        0.15000
O         -1.15485        2.24422        0.36080
C          1.10850        1.71161        0.02581
C          1.49198        3.05687        0.00139
C          2.83545        3.39367       -0.10128
C          3.80819        2.39016       -0.16451
C          3.43423        1.05332       -0.12323
C          2.08056        0.70812       -0.03718
C          1.69839       -0.73030        0.02797
O          2.56714       -1.57473        0.18867
H          1.68280       -3.57040        1.54727
H          1.78787       -5.14420        0.75050
H          0.24331       -4.59970        1.42071
H          1.73354       -3.33042       -0.94662
H          0.31206       -4.36180       -1.08226
H         -3.51371       -1.98427       -0.38959
H         -1.81006       -3.73731       -0.60721
H          0.72220        3.81566        0.06515
H          3.13096        4.43644       -0.12871
H          4.85640        2.65619       -0.24127
H          4.17079        0.26041       -0.15515
C         -3.17868        0.54920       -0.00692
C         -4.17790        1.22393        0.05378
C         -5.32270        2.11558        0.14726
H         -5.88361        2.13695       -0.79226
H         -6.01008        1.79227        0.93506
H         -5.00170        3.13641        0.37445
