31
616789_b3lyp_0.log	Energy: -539567.0463440
C         -3.35386       -1.32061        1.43304
C         -3.06542       -0.76570        0.01813
C         -2.12582        0.44838       -0.00675
C         -0.71263        0.42612        0.08310
C          0.00250        1.64227       -0.00311
C         -0.66575        2.86138       -0.12264
C         -2.04967        2.88421       -0.18366
C         -2.75923        1.68761       -0.14214
C          1.50183        1.68909        0.00055
O          2.09227        2.75628       -0.02548
C          2.23394        0.39814        0.00522
C          3.62712        0.39130       -0.11688
C          4.31721       -0.81444       -0.11767
C          3.62176       -2.02049        0.01335
C          2.23877       -2.01988        0.14996
C          1.53588       -0.81074        0.14058
C          0.05406       -0.83938        0.30867
O         -0.50094       -1.87269        0.64268
H         -2.45602       -1.73942        1.87935
H         -4.11664       -2.10005        1.37519
H         -3.73195       -0.51266        2.06335
H         -4.02078       -0.39028       -0.36543
H         -0.07744        3.76847       -0.17544
H         -2.58005        3.82427       -0.28247
H         -3.84072        1.71497       -0.22357
H          4.14389        1.33824       -0.21125
H          5.39640       -0.81996       -0.21959
H          4.16249       -2.96002        0.01005
H          1.68312       -2.94250        0.26021
C         -2.69862       -1.81704       -0.93930
N         -2.50076       -2.62445       -1.73866
