51
6699_b3lyp_prop_0.log	Energy: -889251.1473284
O         -3.75167       -0.70514       -0.58617
O          3.56348       -0.21021       -0.63826
O         -1.89257       -2.34621        0.48112
O          1.70519        1.33814        0.69565
C         -1.49755       -0.07058       -0.12443
C          1.30940       -0.83541       -0.17029
C         -0.51183        0.94122       -0.05373
C          0.32925       -1.84255       -0.13301
C         -1.10502       -1.49466        0.11318
C          0.91848        0.56003        0.19396
C         -2.83435        0.28345       -0.37646
C          2.63829       -1.20056       -0.45050
C         -0.86532        2.30197       -0.19414
C          0.66909       -3.18328       -0.31002
C         -3.18316        1.62749       -0.53373
C          2.97064       -2.54089       -0.65708
C         -2.21779        2.61070       -0.43944
C          1.99100       -3.52572       -0.57314
C         -5.05040       -0.57957       -0.12624
C          4.84699       -0.33464       -0.13942
C         -5.33676       -0.11461        1.15643
C          5.10109       -0.83787        1.13569
C         -6.06575       -1.02039       -0.97120
C          5.88277        0.14356       -0.93865
C         -6.66226       -0.07702        1.58376
C          6.41374       -0.87430        1.60129
C         -7.38593       -0.98440       -0.52829
C          7.18940        0.10830       -0.45758
C         -7.69041       -0.50884        0.74656
C          7.46150       -0.40439        0.81027
H         -0.11013       -3.93181       -0.24784
H         -4.21254        1.88822       -0.74543
H          3.99577       -2.79990       -0.89173
H         -2.49330        3.64958       -0.57343
H          2.26238       -4.56292       -0.73375
H         -4.53376        0.20007        1.81163
H          4.28315       -1.18196        1.75649
H         -5.80844       -1.38918       -1.95658
H          5.65070        0.53949       -1.91983
H         -6.88817        0.28046        2.58207
H          6.61388       -1.26119        2.59417
H         -8.17775       -1.32772       -1.18439
H          7.99637        0.48027       -1.07875
H         -8.71864       -0.48062        1.08732
H          8.47934       -0.43254        1.18097
C          0.06076        3.38255       -0.14360
C          0.76492        4.36226       -0.12816
C          1.67595        5.49470       -0.07704
H          1.27792        6.29264        0.55712
H          2.64579        5.19080        0.32749
H          1.84137        5.91439       -1.07419
