19
86210053_b3lyp_prop_0.log	Energy: -427696.7006718
O          0.58185       -2.26939       -0.00373
O          1.06350        3.04322        0.00217
N          4.11178       -1.90057        0.00090
N         -2.46875        2.73366       -0.00276
C          2.01657       -0.38999        0.00033
C         -0.40631        1.18441       -0.00037
C          0.67685       -1.06490       -0.00164
C          0.93241        1.83455        0.00122
C         -0.54665       -0.17765       -0.00104
C          2.12263        0.95133        0.00166
C          3.16936       -1.23422        0.00060
C         -1.54240        2.04381       -0.00143
H          3.08179        1.45571        0.00302
C         -1.79330       -0.82530       -0.00161
C         -2.86197       -1.38956       -0.00118
C         -4.14719       -2.05982        0.00208
H         -4.47763       -2.23765        1.03028
H         -4.90550       -1.44963       -0.49553
H         -4.08270       -3.02658       -0.50410
